/*--------------------------------*- C++ -*----------------------------------*\
| =========                 |                                                 |
| \\      /  F ield         | OpenFOAM: The Open Source CFD Toolbox           |
|  \\    /   O peration     | Version:  2206                                  |
|   \\  /    A nd           | Website:  www.openfoam.com                      |
|    \\/     M anipulation  |                                                 |
\*---------------------------------------------------------------------------*/
FoamFile
{
    version     2.0;
    format      ascii;
    arch        "LSB;label=32;scalar=64";
    class       volScalarField;
    location    "0";
    object      k;
}
// * * * * * * * * * * * * * * * * * * * * * * * * * * * * * * * * * * * * * //

dimensions      [0 2 -2 0 0 0 0];

internalField   nonuniform List<scalar> 
19794
(
0.62327862
0.61841553
0.61443412
0.61199881
0.61027053
0.60915633
0.6084032
0.60788018
0.60749344
0.6071963
0.60696657
0.6067891
0.60665122
0.60654211
0.60645304
0.60637743
0.60631086
0.60625071
0.6061956
0.60614489
0.60609843
0.60605632
0.60601853
0.60598487
0.6059549
0.60592808
0.60590377
0.60588086
0.60585882
0.60583822
0.60582016
0.60580754
0.60580469
0.60581847
0.60585792
0.60593445
0.60606197
0.60625682
0.60653779
0.60692635
0.6074431
0.60810795
0.6089457
0.60999097
0.61128683
0.61291781
0.61495199
0.6168446
0.62146288
0.64554252
0.63739901
0.62941896
0.62400679
0.62016236
0.61751426
0.61553256
0.61402281
0.61288161
0.61202644
0.61136949
0.61084532
0.61041534
0.6100536
0.60974221
0.6094689
0.60922525
0.60900569
0.60880642
0.60862503
0.6084601
0.60831051
0.60817538
0.60805386
0.60794501
0.60784767
0.60776064
0.60768088
0.60760545
0.60753338
0.60746474
0.60740194
0.60735152
0.60732463
0.60733756
0.60741312
0.60758172
0.60788277
0.60836806
0.6091071
0.61019272
0.61174136
0.6139009
0.61685193
0.62079767
0.62583796
0.63234235
0.63684212
0.63664153
0.67137942
0.65420013
0.6436998
0.63600474
0.63058583
0.62665936
0.62366239
0.62129834
0.61943511
0.61798865
0.61683353
0.61586723
0.61503623
0.61430838
0.61366359
0.61308811
0.61257229
0.61210898
0.61169219
0.6113174
0.61098114
0.61068048
0.61041274
0.61017532
0.60996557
0.60978069
0.60961843
0.6094736
0.60934083
0.60921828
0.60910477
0.60900202
0.6089161
0.60885625
0.60883618
0.60887471
0.60899644
0.60923377
0.60963026
0.6102468
0.61117663
0.61254999
0.61453955
0.61738413
0.62140697
0.62703765
0.63515486
0.64526412
0.66224022
0.68299596
0.66687202
0.65641308
0.64778154
0.64132466
0.63620182
0.63216135
0.6289337
0.62635706
0.62429914
0.62260616
0.62116073
0.61989894
0.61878169
0.61778448
0.61689061
0.61608855
0.61536878
0.6147235
0.6141469
0.61363418
0.61318088
0.61278269
0.6124353
0.61213406
0.61187437
0.61165215
0.61146097
0.61129459
0.61115041
0.61102654
0.61092413
0.61084717
0.61080224
0.61079947
0.61085249
0.61098014
0.61120932
0.61157958
0.61215083
0.61302035
0.61432766
0.61625347
0.61904713
0.6230039
0.62857638
0.6365328
0.6467212
0.66260239
0.69196356
0.67509893
0.66552828
0.65740816
0.65088347
0.64511542
0.64024787
0.63619406
0.63288767
0.63019361
0.62795653
0.62605732
0.62441801
0.62298395
0.62171734
0.62059164
0.6195875
0.61868972
0.61788762
0.61717327
0.61653996
0.61598158
0.61549269
0.61506826
0.61470304
0.61439136
0.61412823
0.61390719
0.613721
0.61356666
0.61344271
0.6133487
0.61328706
0.61326351
0.61328666
0.61336896
0.6135288
0.61379321
0.61420279
0.61481906
0.61573554
0.61708624
0.6190406
0.6218286
0.62570416
0.63098736
0.63842049
0.64732081
0.66314266
0.70287332
0.68278048
0.67228466
0.66470908
0.65874018
0.65310893
0.64798229
0.64340153
0.63946433
0.63613675
0.63333148
0.63095903
0.62894194
0.62721408
0.62572213
0.62442408
0.62328649
0.62228353
0.62139643
0.62061083
0.61991513
0.61929996
0.61875751
0.61828148
0.6178662
0.61750601
0.61719618
0.61693098
0.61670281
0.61650937
0.61635073
0.61622612
0.61613901
0.61609723
0.61611224
0.61620063
0.616386
0.6167011
0.61719239
0.61792485
0.6189875
0.62050203
0.62261459
0.62550292
0.62935652
0.63427786
0.6410151
0.64851093
0.66141357
0.71935543
0.69395649
0.67992536
0.67149304
0.66576041
0.66066456
0.65587636
0.65129761
0.64707909
0.64329815
0.63997808
0.63710263
0.63463471
0.63252563
0.6307243
0.62918189
0.62785435
0.62670468
0.62570269
0.62482379
0.62404829
0.62336072
0.62274871
0.62220242
0.62171432
0.62127866
0.62089077
0.62054619
0.62023768
0.61996518
0.61973302
0.61954328
0.61940336
0.61932602
0.61932826
0.61943266
0.61966872
0.62007425
0.62069742
0.62159803
0.62284769
0.62453235
0.62674369
0.62956559
0.63310253
0.63726978
0.64282298
0.64873162
0.65810927
0.74133706
0.71059062
0.69132626
0.68004272
0.67326662
0.66830388
0.66405311
0.65996808
0.65600104
0.65220378
0.64865637
0.64541739
0.64251817
0.63996247
0.63773344
0.63580113
0.63412946
0.63268194
0.63142396
0.6303244
0.62935652
0.62849849
0.6277329
0.62704583
0.62642677
0.62586816
0.62536489
0.62491397
0.62450761
0.62414801
0.62384531
0.62360511
0.62343885
0.623363
0.62339761
0.62356693
0.6238994
0.62442727
0.62518519
0.62620778
0.62752622
0.62916715
0.63115112
0.63347406
0.63620141
0.63921839
0.64332019
0.64797473
0.65507743
0.76586896
0.73207681
0.70771013
0.69209907
0.68258747
0.67654458
0.6722837
0.66870952
0.66535523
0.66204172
0.65875903
0.6555598
0.6525121
0.64967189
0.64707336
0.64472899
0.64263448
0.64077464
0.63912785
0.63767002
0.63637732
0.63522806
0.6342038
0.63328899
0.63247103
0.63174106
0.63109402
0.63052817
0.63003218
0.62960681
0.62926633
0.62901721
0.62886956
0.62883684
0.62893416
0.6291772
0.62958056
0.63015526
0.63090532
0.63182532
0.63290055
0.63410931
0.63543824
0.63687701
0.638563
0.6405408
0.64366641
0.64801718
0.65467583
0.78979639
0.75601678
0.72845841
0.70845486
0.69499536
0.6863586
0.68084128
0.67703487
0.67404918
0.67135475
0.66870198
0.66600797
0.6632834
0.66057825
0.65794935
0.65544425
0.65309592
0.65092285
0.64893156
0.64712017
0.64548143
0.6440053
0.64268097
0.64149785
0.64044643
0.63951968
0.63871253
0.63802443
0.63743638
0.63694358
0.63656288
0.63629484
0.63613933
0.63609791
0.63617097
0.63635564
0.63664317
0.63701646
0.63744929
0.63790959
0.63836778
0.63880831
0.63926392
0.63982052
0.64076658
0.64236734
0.64545659
0.65046293
0.65795904
0.81199924
0.77990308
0.75168151
0.72871131
0.7112971
0.69907819
0.69094052
0.68561998
0.68205258
0.67943544
0.67724471
0.67517616
0.6730856
0.67092942
0.66871893
0.66648967
0.66428311
0.66213722
0.66008248
0.65814122
0.65632832
0.65465238
0.65311735
0.65172455
0.65047381
0.64936225
0.64838758
0.64755308
0.64682794
0.6461972
0.64568091
0.64526934
0.6449466
0.64469834
0.64450805
0.64435475
0.64421208
0.64404951
0.64383748
0.6435574
0.64321776
0.64287233
0.64266013
0.64279904
0.64370015
0.64575085
0.64963261
0.65584127
0.66463142
0.83454628
0.80297643
0.77550404
0.75152527
0.7313241
0.71561536
0.704121
0.69611803
0.69072146
0.68709404
0.68455942
0.68262329
0.68096067
0.67937941
0.67778169
0.6761307
0.67442579
0.67268512
0.67093476
0.66920213
0.66751235
0.66588637
0.66434099
0.6628893
0.66153933
0.66029543
0.65916079
0.65814604
0.65720428
0.65630875
0.65549131
0.65473492
0.65401174
0.65329863
0.65257277
0.65181085
0.65099186
0.65010267
0.64914753
0.6481611
0.64722592
0.64648737
0.64618015
0.64660289
0.64818448
0.65129786
0.65642683
0.66399699
0.67404566
0.86267516
0.82750108
0.79973083
0.77574657
0.75419383
0.73596202
0.72131315
0.71014794
0.70199534
0.69623343
0.69223456
0.68944813
0.68743839
0.68588514
0.68456872
0.68334863
0.68214273
0.68090933
0.67963327
0.67831557
0.67696641
0.67560001
0.67423176
0.67287504
0.67154105
0.67023727
0.66897179
0.66776845
0.66655788
0.66530452
0.66406962
0.66283812
0.66158181
0.66028425
0.65893536
0.65753239
0.65608506
0.65462288
0.65320459
0.65192851
0.65094429
0.65045621
0.65073264
0.65207221
0.65483352
0.65931472
0.66584986
0.67477992
0.68604041
0.90380316
0.85897693
0.8271498
0.80206324
0.77960009
0.75978728
0.74272996
0.72865486
0.71747648
0.7088974
0.70249288
0.69780498
0.69440602
0.69192961
0.69008137
0.68863622
0.68742945
0.68634554
0.68530713
0.68426542
0.68319207
0.68207315
0.68090326
0.67968304
0.6784159
0.67710371
0.6757555
0.67440808
0.67297482
0.67141337
0.66981922
0.66819742
0.6665301
0.66482072
0.66308669
0.66135949
0.65968929
0.65815073
0.65684867
0.65592274
0.65555109
0.65594506
0.65734918
0.66001423
0.66421088
0.67018387
0.67820764
0.68865398
0.70149783
0.96614152
0.90532127
0.86381773
0.8342255
0.80942434
0.78790971
0.7688837
0.7523693
0.73837944
0.726844
0.71755974
0.7102374
0.70455121
0.70017787
0.69682175
0.69422726
0.69218267
0.69051846
0.6891027
0.68783558
0.68664328
0.68547312
0.6842896
0.68307035
0.68180043
0.68046986
0.67908317
0.67767534
0.67616672
0.67450631
0.67280136
0.67109638
0.66938792
0.66770047
0.66607871
0.66458397
0.66329637
0.66231747
0.66177203
0.66180796
0.66259559
0.66432125
0.66718814
0.67140417
0.67719944
0.6848298
0.69462382
0.70715659
0.72247343
1.0576853
0.97562074
0.91834034
0.87922582
0.84871952
0.82372058
0.80206281
0.78305861
0.76641249
0.75202094
0.73977044
0.72950122
0.72100637
0.71405123
0.70839453
0.70380465
0.70007011
0.69700525
0.69445182
0.69227789
0.6903772
0.68866606
0.68708052
0.68557312
0.68410875
0.68266378
0.68123463
0.67984015
0.67842145
0.67691396
0.67541489
0.67400835
0.67270154
0.67152933
0.67055019
0.66983872
0.66948497
0.66959496
0.67029039
0.67170769
0.67399782
0.67732399
0.68187026
0.68784385
0.69550473
0.70518605
0.71735757
0.73289719
0.75177878
1.1863413
1.0793176
1.0008371
0.94664288
0.90571766
0.87383752
0.84741751
0.82477792
0.80496831
0.78754608
0.7722631
0.75894838
0.74744162
0.7375733
0.72916375
0.72202947
0.71599083
0.71087897
0.70654014
0.7028368
0.69965057
0.69688374
0.69445606
0.69230267
0.69037306
0.68863258
0.68706847
0.6856801
0.68442207
0.68321222
0.68213045
0.68128379
0.68068237
0.68035783
0.68036662
0.68078071
0.68168528
0.68317856
0.685372
0.68839117
0.69237919
0.69750067
0.70395654
0.71199574
0.7219549
0.73427962
0.74960688
0.76908417
0.7923013
1.3621998
1.2268015
1.1226065
1.0480026
0.99135079
0.94803949
0.91335254
0.88461777
0.86006024
0.83866688
0.81983039
0.80318376
0.78847907
0.77552491
0.76415416
0.75421033
0.74554309
0.73800806
0.73147143
0.72581024
0.72091159
0.71667692
0.71302342
0.70988025
0.70718976
0.70491124
0.70302302
0.70150708
0.7003216
0.6993684
0.69870676
0.69845103
0.69861033
0.69920521
0.70028121
0.7019008
0.70414053
0.70709133
0.71086026
0.71557419
0.72138646
0.72848593
0.73711444
0.74758382
0.76032106
0.77587621
0.79500645
0.81893772
0.84647323
1.6063786
1.4332127
1.2978006
1.1973087
1.1192935
1.0592447
1.0116872
0.97313599
0.94100056
0.91359469
0.88979915
0.86888831
0.85038011
0.8339419
0.81932934
0.80635022
0.79484381
0.78466852
0.77569651
0.76781621
0.76092754
0.75493807
0.7497654
0.74533934
0.74160251
0.73851273
0.73604004
0.73415208
0.73280817
0.73190015
0.73146392
0.73161493
0.73236472
0.73372332
0.735725
0.73842424
0.74189302
0.74622193
0.75152338
0.75793736
0.76564017
0.77485614
0.78587598
0.79907359
0.81494585
0.83408487
0.85723448
0.885425
0.91640897
1.9889279
1.7356216
1.5512375
1.4151918
1.3083179
1.2249772
1.1587017
1.1052663
1.0613311
1.0245229
0.99313497
0.9659703
0.94218809
0.92119471
0.90256346
0.88597919
0.87120162
0.8580412
0.84634215
0.83597361
0.82682683
0.8188078
0.81183401
0.80583578
0.80075575
0.79654879
0.7931752
0.79059169
0.78876184
0.78757314
0.78703584
0.78726843
0.78829346
0.79011647
0.792765
0.79629092
0.80076844
0.80629562
0.81299861
0.82103827
0.83061959
0.84200337
0.85552137
0.87158426
0.89070164
0.91340585
0.94027458
0.971987
1.0052554
2.793016
2.2803428
1.9609219
1.7505644
1.593423
1.4736797
1.3793812
1.303728
1.2418979
1.1905415
1.1472363
1.1102273
1.0782312
1.0503049
1.0257492
1.0040396
0.9847774
0.96765512
0.9524314
0.93891253
0.9269415
0.91639129
0.90715873
0.89915874
0.89232185
0.88658949
0.88190578
0.87821851
0.87550086
0.87363522
0.87259577
0.8725112
0.8734263
0.8753499
0.87830956
0.88236114
0.88758808
0.89410294
0.90205163
0.91161951
0.9230391
0.93659783
0.95264477
0.97158374
0.99386876
1.0198992
1.0500217
1.084788
1.1198501
5.082774
3.7096634
2.8902707
2.416583
2.1066346
1.8924888
1.7353448
1.6152065
1.5203879
1.4437019
1.3804295
1.3273487
1.2821894
1.2433165
1.2095314
1.1799419
1.1538757
1.1308197
1.1103773
1.0922387
1.0761592
1.061946
1.0494454
1.0385311
1.0290997
1.0210615
1.0143357
1.008866
1.0046469
1.0015123
0.99938952
0.99845335
0.99877322
1.0003581
1.0032369
1.0074722
1.0131588
1.0204241
1.0294317
1.0403857
1.0535366
1.0691853
1.0876873
1.1094456
1.1349207
1.1645927
1.199053
1.2403557
1.2838115
10.81621
7.9175941
5.8134038
4.4267155
3.5159495
2.9202601
2.5222058
2.2466126
2.0477536
1.8984229
1.7822999
1.6893642
1.6132522
1.5497691
1.4960467
1.4500575
1.4103272
1.3757614
1.345533
1.3190046
1.2956772
1.2751586
1.2571411
1.2413827
1.2276864
1.2158857
1.2058405
1.197461
1.190741
1.1854903
1.1815294
1.1790309
1.1781496
1.1789049
1.181332
1.1855141
1.1915802
1.1997071
1.2101245
1.2231245
1.2390749
1.2584359
1.2817865
1.3098663
1.3436862
1.3847143
1.4356172
1.5053786
1.5873597
20.586244
16.563815
13.14968
10.400465
8.2282641
6.5573737
5.3025793
4.3761398
3.698223
3.2026885
2.8382782
2.5671028
2.3620289
2.2040001
2.0797701
1.9801657
1.8988233
1.8313003
1.7744695
1.726107
1.6846051
1.6487766
1.6177327
1.5908038
1.5674797
1.5473643
1.5301484
1.5156059
1.5036082
1.4940197
1.4865887
1.4813344
1.4784787
1.478096
1.4802547
1.4850799
1.4927683
1.5036013
1.5179725
1.53644
1.559828
1.5894264
1.6274011
1.6776382
1.7475125
1.8513446
2.0186593
2.3097866
2.7609759
33.974139
29.324112
25.202276
21.609652
18.47895
15.767849
13.442606
11.468024
9.8066986
8.4204109
7.2717004
6.3252098
5.5486302
4.9132381
4.3940861
3.969942
3.6230462
3.338761
3.1051591
2.912615
2.7534157
2.6214109
2.5117043
2.4204058
2.3444387
2.2813867
2.2293667
2.1869321
2.1530242
2.1269708
2.1081458
2.0962338
2.0914952
2.0944086
2.1057575
2.1267909
2.1594039
2.2063879
2.2718112
2.3615991
2.4844086
2.6529509
2.8859508
3.2109429
3.6680606
4.3147501
5.2315054
6.5145176
8.2200383
51.644456
46.396385
41.747169
37.638954
33.978744
30.701421
27.76247
25.127592
22.768245
20.65946
18.778599
17.104677
15.618064
14.300392
13.134538
12.10466
11.196242
10.396105
9.6924169
9.0746413
8.5334874
8.0608367
7.6496547
7.2939033
6.9884593
6.7290529
6.5122136
6.3352346
6.1961673
6.0938667
6.0278854
5.9984025
6.0066573
6.0549193
6.1465675
6.2863307
6.4805844
6.7377186
7.0686286
7.4873202
8.0116906
8.6644795
9.4744035
10.477444
11.718227
13.251408
15.142269
17.460604
20.231124
75.945263
69.790636
64.399123
59.667945
55.472594
51.718237
48.336322
45.275173
42.494673
39.962991
37.654293
35.547096
33.623162
31.866728
30.263971
28.802635
27.471791
26.261649
25.16345
24.169379
23.272502
22.466717
21.746729
21.108015
20.546803
20.060051
19.645447
19.301431
19.027208
18.822804
18.68913
18.627989
18.642147
18.735615
18.913725
19.183309
19.552963
20.033365
20.637631
21.381793
22.285328
23.371809
24.669678
26.213125
28.043053
30.208262
32.766996
35.78761
39.279272
111.81402
104.05658
97.374615
91.579744
86.504172
82.013124
78.004803
74.401319
71.142317
68.180575
65.478722
63.006778
60.74038
58.659454
56.747301
54.989848
53.375172
51.893095
50.534919
49.293209
48.161637
47.134872
46.208486
45.378905
44.643359
43.999864
43.447214
42.984982
42.613543
42.334121
42.14884
42.060803
42.074086
42.19398
42.427158
42.781841
43.26805
43.897902
44.685963
45.649727
46.810165
48.192467
49.826969
51.750337
54.007132
56.652046
59.754324
63.406954
67.643325
171.478
159.96239
150.4098
142.37223
135.49506
129.52412
124.28017
119.63179
115.47955
111.74678
108.37328
105.31115
102.52186
99.974149
97.642382
95.505464
93.545883
91.749062
90.102848
88.597119
87.223484
85.975046
84.846248
83.832744
82.931301
82.139745
81.456914
80.882643
80.417767
80.064157
79.82478
79.703768
79.706482
79.839623
80.111629
80.532792
81.115619
81.875165
82.829666
84.001154
85.416448
87.108277
89.117306
91.494335
94.303977
97.629457
101.58043
106.30978
111.90489
0.64001598
0.66373345
0.69213713
0.69878625
0.71072928
0.72529573
0.74615441
0.77067349
0.79488468
0.81677198
0.8376837
0.86232039
0.89766943
0.95148121
1.0310154
1.1427145
1.293264
1.4933807
1.7741968
2.2638678
3.4822511
6.8535513
13.873617
24.452016
38.434893
56.840984
82.329552
120.41985
185.22255
0.65571609
0.67849953
0.70550656
0.70918885
0.72409571
0.74042376
0.76310576
0.78768407
0.81050706
0.83099661
0.85217646
0.8799914
0.92184333
0.98506475
1.0760066
1.2002456
1.3641775
1.580266
1.8928399
2.4995172
4.1435408
8.3942884
16.26934
27.439054
41.986837
61.147611
87.840571
128.11213
197.48141
0.67490728
0.69530539
0.71900686
0.72159985
0.73939087
0.75695122
0.78065371
0.80427726
0.82531195
0.84488846
0.86755628
0.90007089
0.94974123
1.0231046
1.1254896
1.2617633
1.4384325
1.6714101
2.027482
2.8080128
5.0011394
10.146794
18.751154
30.43615
45.527564
65.443693
93.358508
135.82348
209.60851
0.69594105
0.71286724
0.73220053
0.73574042
0.75558093
0.77386943
0.79767659
0.81965535
0.83903895
0.85857853
0.88400024
0.92238423
0.98053348
1.0639943
1.1771435
1.3243957
1.5128979
1.764594
2.1813965
3.2029448
6.0360215
12.015526
21.226538
33.37276
48.992657
69.660748
98.796168
143.42425
221.40017
0.71818904
0.73087304
0.7453141
0.75135844
0.77211896
0.79072211
0.81374557
0.83377367
0.85200788
0.87253516
0.901852
0.94691504
1.0137268
1.1067896
1.2297044
1.3867329
1.5863969
1.8604795
2.3624185
3.6997659
7.2262194
13.945875
23.66651
36.238292
52.375382
73.788912
104.13001
150.86229
232.72724
0.74154415
0.74923325
0.75856023
0.76813115
0.78861371
0.80718713
0.82868616
0.84684226
0.86466383
0.88722345
0.92137946
0.9735882
1.0488802
1.1507778
1.2823442
1.4480232
1.6587659
1.9615617
2.5811793
4.310388
8.5436643
15.901926
26.059886
39.032329
55.675919
77.824084
109.3436
158.09724
243.4854
0.76610963
0.76787757
0.77205562
0.7856829
0.80474439
0.82300658
0.8424746
0.85915842
0.8774212
0.90298577
0.94268551
1.0021888
1.0854984
1.1953074
1.3344099
1.5078191
1.730417
2.0716329
2.8495488
5.0395381
9.9571591
17.859092
28.401679
41.756151
58.894977
81.762695
114.42283
165.09471
253.59284
0.79202517
0.78677247
0.78584001
0.80363753
0.82026295
0.8380158
0.85521097
0.8710496
0.89062499
0.92002716
0.9657137
1.0323765
1.1230355
1.2397616
1.3853583
1.5658763
1.8022203
2.195591
3.1792201
5.8835389
11.436657
19.800917
30.689804
44.411321
62.033134
85.601436
119.35568
171.82569
262.99039
0.81943252
0.80593524
0.79989642
0.82165866
0.83500551
0.85215735
0.86708639
0.88284113
0.90454271
0.93843204
0.99028703
1.0637377
1.1609439
1.2835923
1.4347752
1.6221732
1.8755544
2.3393914
3.5803899
6.8314191
12.956347
21.716958
32.92387
46.999511
65.090941
89.337464
124.1323
178.26646
271.64017
0.84848009
0.82540352
0.81416693
0.83946557
0.84888956
0.8654652
0.87834242
0.89482895
0.91936007
0.95818182
1.0161443
1.0958289
1.1987134
1.3263487
1.4823955
1.6769386
1.952373
2.5099076
4.0604679
7.8673107
14.495799
23.600983
35.104486
49.522452
68.069024
92.968545
128.74501
184.39838
279.52285
0.87931291
0.84520134
0.82856745
0.85683638
0.86190199
0.8780396
0.88923659
0.90725965
0.93517939
0.97917066
1.0429685
1.1282068
1.2358923
1.3676842
1.5281036
1.7306625
2.0352491
2.7146147
4.6230298
8.9731579
16.039753
25.449555
37.232821
51.981888
70.968142
96.493087
133.18803
190.20749
286.63443
0.91205392
0.86532398
0.842999
0.8736063
0.87408459
0.89002391
0.90001722
0.92031883
0.95202227
1.0012209
1.0704109
1.1604505
1.2720996
1.407358
1.5719299
1.7841086
2.127401
2.9610987
5.2673246
10.131042
17.577327
27.26105
39.310347
54.379568
73.789206
99.910139
137.45735
195.68417
292.98306
0.94679444
0.88573824
0.8573571
0.88966369
0.88551922
0.90158401
0.91090506
0.93412552
0.96983623
1.0240999
1.0981112
1.1921772
1.3070329
1.4452357
1.6140508
1.838335
2.2326929
3.2564278
5.9884895
11.324763
19.101071
29.035013
41.338698
56.717235
76.533296
103.21932
141.55044
200.82273
298.58618
0.98359853
0.90639087
0.87154016
0.90494354
0.89631299
0.91288948
0.92208041
0.94873139
0.98850441
1.0475369
1.1257165
1.2230562
1.3404733
1.4812875
1.6547911
1.8947246
2.3555857
3.60646
6.7783937
12.540652
20.606102
30.77173
43.319599
58.996646
79.201663
106.4208
145.46609
205.621
303.46831
1.0225166
0.92722238
0.88545856
0.91942097
0.90658616
0.9240984
0.93367498
0.96412375
1.0078578
1.0712408
1.1528976
1.2528193
1.3722901
1.5155891
1.6946316
1.9550184
2.5010167
4.0151971
7.6268338
13.767768
22.089403
32.471968
45.254809
61.219576
81.795714
109.5152
149.20421
210.07996
307.65923
1.0636024
0.94818322
0.89904399
0.93310644
0.9164632
0.93534652
0.94576887
0.98023222
1.0276894
1.0949167
1.1793632
1.281268
1.4024403
1.5483193
1.7342172
2.0213454
2.6741914
4.4843205
8.5227754
14.997727
23.549287
34.136806
47.146116
63.387812
84.317001
112.50352
152.7657
214.20336
311.19274
1.1069287
0.96924979
0.9122581
0.94604237
0.92606726
0.94674097
0.95839155
0.99693788
1.0477685
1.1182821
1.2048711
1.3082776
1.4309674
1.5797574
1.7743697
2.0962411
2.8802867
5.0130171
9.4554032
16.224347
24.985004
35.767527
48.995313
65.503164
86.767201
115.38715
156.15232
217.99733
314.10554
1.1525996
0.9904366
0.92509859
0.95830022
0.93551686
0.95835748
0.97152568
1.0140836
1.0678556
1.1410805
1.229237
1.3338
1.4579983
1.6102818
1.8161039
2.1826416
3.1240849
5.5981349
10.414855
17.44326
26.396469
37.36555
50.804193
67.567448
89.148086
118.16775
159.36657
221.47011
316.43659
1.200757
1.0118033
0.93760161
0.96997608
0.94492298
0.97023941
0.98511275
1.0314852
1.0877145
1.1630922
1.2523395
1.3578612
1.4837368
1.6403665
1.8606441
2.2838453
3.409581
6.2346255
11.392639
18.65153
27.784076
38.932379
52.574549
69.582499
91.461523
120.84725
162.41166
224.63175
318.22658
1.2515821
1.0334555
0.94983978
0.98118422
0.95438582
0.9823979
0.99905903
1.0489412
1.1071236
1.1841417
1.274122
1.3805584
1.5084584
1.6705827
1.9094433
2.4034308
3.7396243
6.9161694
12.381783
19.847331
29.14857
40.469589
54.30817
71.550165
93.70945
123.42783
165.2914
227.49382
319.51734
1.3052918
1.0555414
0.9619155
0.99204731
0.96398922
0.99481159
1.0132421
1.0662435
1.1258847
1.204104
1.2945936
1.4020563
1.5325039
1.7016011
1.9641985
2.5451275
4.1156583
7.6358422
13.376818
21.02969
30.49095
41.978799
56.006845
73.472298
95.893866
125.91185
168.01014
230.06916
320.3515
1.3621325
1.0782437
0.97395206
1.0026853
0.97379463
1.0074267
1.0275178
1.0831871
1.1438324
1.2229094
1.3138279
1.4225804
1.5562743
1.7341991
2.0268614
2.7126417
4.5376145
8.3867176
14.373642
22.198301
31.812402
43.461662
57.672356
75.350764
98.016826
128.30187
170.57272
232.37168
320.77195
1.4223728
1.1017721
0.98608131
1.0132024
0.98383385
1.0201577
1.0417278
1.0995805
1.1608421
1.2405462
1.331961
1.442414
1.5802291
1.7692728
2.0996348
2.9094493
5.003977
9.1623352
15.369348
23.353363
33.114275
44.919861
59.306489
77.187439
100.08042
130.60062
172.98439
234.41608
320.82142
1.4862983
1.1263555
0.99843297
1.0236747
0.99410312
1.0328894
1.0557085
1.1152571
1.1768382
1.2570651
1.349191
1.4618928
1.604885
1.8078498
2.1849532
3.138579
5.5120043
9.9570181
16.362047
24.495479
34.398034
46.355109
60.911032
78.984204
102.08679
132.81094
175.2508
236.21766
320.54192
1.5542079
1.1522361
1.0111245
1.0341408
1.0045594
1.0454816
1.0693013
1.1300862
1.1918031
1.2725823
1.3657753
1.481401
1.630818
1.851106
2.2854432
3.4024116
6.058071
10.76605
17.350688
25.625579
35.665251
47.769144
62.48779
80.74296
104.03811
134.93584
177.37784
237.79197
319.97411
1.6264145
1.1796694
1.0242555
1.0445945
1.0151204
1.057776
1.0823641
1.1439854
1.2057849
1.2872819
1.3820282
1.5013682
1.6586676
1.900379
2.403856
3.7025323
6.6380603
11.585737
18.334929
26.744859
36.917592
49.163746
64.03858
82.465622
105.93659
136.97839
179.37167
239.15468
319.15655
1.7032472
1.2089247
1.0379051
1.0549834
1.0256685
1.0696068
1.0947835
1.1569312
1.218904
1.3014163
1.3983176
1.5222651
1.6891422
1.95718
2.5429828
4.0396566
7.2477496
12.413397
19.315012
27.854749
38.156816
50.540735
65.565248
84.15413
107.78446
138.94176
181.23857
240.32117
318.12499
1.7850536
1.240289
1.0521327
1.0652113
1.0360596
1.0808141
1.1064888
1.1689692
1.2313572
1.315305
1.4150593
1.5445989
1.7230272
2.0231999
2.70555
4.4136495
7.8831528
13.247298
20.291682
28.956887
39.384777
51.901979
67.069677
85.810453
109.58401
140.82916
182.98492
241.30632
316.91242
1.8721975
1.2740694
1.0669827
1.075146
1.046137
1.0912601
1.1174649
1.1802214
1.2434195
1.3293294
1.4327086
1.56891
1.7611947
2.1003076
2.8941147
4.8236402
8.5407954
14.086588
21.266115
30.053107
40.603434
53.249419
68.553806
87.43659
111.33753
142.64389
184.61712
242.1244
315.55111
1.9650457
1.3105944
1.0824914
1.0846329
1.0557505
1.100849
1.127766
1.1908917
1.2554405
1.3439237
1.4517506
1.5957672
1.8046144
2.1905422
3.1109676
5.268217
9.2179118
14.931214
22.23988
31.145439
41.814862
54.58508
70.019629
89.034605
113.04739
144.38923
186.14154
242.78941
314.07312
2.0639377
1.350211
1.0986971
1.0935141
1.0647804
1.1095489
1.137529
1.2012682
1.2678386
1.3595614
1.4726873
1.6257647
1.8543672
2.2960957
3.3580642
5.7456778
9.9125785
15.781853
23.214923
32.236121
43.021278
55.911092
71.469243
90.606627
114.71598
146.06852
187.56447
243.31548
312.50589
2.169128
1.3932779
1.1156535
1.1016537
1.0731672
1.1174173
1.146986
1.2117216
1.2810879
1.3767369
1.496022
1.6595204
1.9116624
2.4192956
3.6370075
6.254309
10.6238
16.639874
24.193564
33.327626
44.225072
57.229737
72.904871
92.154895
116.34581
147.68519
188.89214
243.71681
310.8688
2.2806988
1.440153
1.1334497
1.1089715
1.080945
1.1246278
1.1564754
1.222701
1.2957029
1.3959425
1.5222446
1.6976774
1.9778592
2.5625882
3.9490802
6.792679
11.351552
17.507304
25.178513
34.422702
45.428866
58.543503
74.328934
93.681831
117.93956
149.24277
190.13093
244.0074
309.17468
2.3984351
1.4911826
1.1522386
1.1154861
1.0882796
1.1314953
1.1664495
1.2347223
1.3122163
1.4176418
1.551816
1.7409112
2.0544966
2.7285369
4.2953644
7.3599265
12.096833
18.386838
26.172899
35.52441
46.635548
59.855125
75.744092
95.190067
119.50012
150.74494
191.28737
244.20078
307.43214
2.5216532
1.5466897
1.1722815
1.1213683
1.095507
1.1384984
1.1774751
1.2483526
1.3311542
1.4422415
1.5851585
1.7899429
2.1433364
2.9198438
4.6769314
7.9560536
12.861724
19.281882
27.180331
36.636171
47.848308
61.167601
77.153235
96.682434
121.03057
152.19555
192.36827
244.30974
305.64862
2.6489905
1.6069605
1.1940067
1.1270051
1.1031708
1.1462917
1.1902234
1.2641838
1.3530066
1.4700628
1.6226531
1.8455659
2.2464336
3.139431
5.0951532
8.5822684
13.649568
20.196795
28.205254
37.76227
49.071305
62.485046
78.560605
98.163404
122.53615
153.60112
193.38369
244.35089
303.83584
2.7780136
1.6722599
1.2181117
1.1330869
1.1120585
1.1557028
1.2054435
1.2827943
1.3781952
1.5013157
1.6646537
1.9086872
2.3662432
3.390592
5.5520819
9.2412564
14.465208
21.137495
29.254109
38.909681
50.312251
63.816144
79.976204
99.644691
124.03123
154.97996
194.35859
244.35852
302.02944
2.905391
1.7425993
1.245529
1.1405779
1.1231593
1.1676684
1.2238975
1.3046919
1.407028
1.5360768
1.711478
1.9803836
2.505859
3.677173
6.0502974
9.936448
15.314005
22.110449
30.334252
40.086786
51.5808
65.172075
81.412984
101.14182
125.53484
156.35836
195.33171
244.39704
300.31535
3.0253488
1.8186411
1.2785041
1.1513759
1.1380395
1.1835018
1.2464637
1.330424
1.4397902
1.5744837
1.7639432
2.062759
2.6695636
4.0026543
6.5909889
10.66834
16.194123
23.108494
31.43135
41.27088
52.844569
66.509648
82.814246
102.58343
126.95559
157.62737
196.17504
244.33004
298.49065
3.1012426
1.8725776
1.3038357
1.1606613
1.1498409
1.1958096
1.2630091
1.3488215
1.4625678
1.6007276
1.7998544
2.1199319
2.7843363
4.227183
6.9529731
11.145566
16.756115
23.73317
32.103771
41.980303
53.582248
67.266582
83.574697
103.32063
127.60806
158.08628
196.22601
243.65065
296.55213
3.1326161
1.8975251
1.3164153
1.1658638
1.1560625
1.2022498
1.2711266
1.3576871
1.4731652
1.6128298
1.8163879
2.1468657
2.8389298
4.3324939
7.1186737
11.360893
17.008213
24.013075
32.405922
42.301629
53.921594
67.624659
83.952668
103.72146
128.03192
158.53487
196.6928
244.1224
296.86722
3.1568884
1.9188306
1.3275332
1.170908
1.1618177
1.208287
1.2784433
1.3657326
1.482599
1.6237396
1.831358
2.1719681
2.8906054
4.4325191
7.2757041
11.565904
17.250644
24.285787
32.70483
42.625082
54.269925
68.000331
84.358977
104.16379
128.51253
159.05545
197.23745
244.64778
297.12567
3.1759509
1.9374338
1.3374029
1.175761
1.1671485
1.2139779
1.2851311
1.3731815
1.4911994
1.6338554
1.8453146
2.1960612
2.9409861
4.5305231
7.4296386
11.768117
17.492229
24.560996
33.010802
42.961384
54.638253
68.404733
84.804559
104.65781
129.05837
159.65284
197.85978
245.22098
297.32557
3.1909703
1.9539351
1.3462265
1.1804449
1.1721445
1.2194173
1.2913689
1.380238
1.4992531
1.643506
1.8587379
2.2199389
2.9917517
4.6298028
7.5858121
11.974612
17.741377
24.848163
33.334195
43.321753
55.038658
68.850858
85.303471
105.21867
129.68595
160.34465
198.57914
245.86232
297.48559
3.2028028
1.9687417
1.3541705
1.1849949
1.1768919
1.2246985
1.2973126
1.3870745
1.5069965
1.6529639
1.8720388
2.2443371
3.0445104
4.733455
7.7491072
12.191851
18.005868
25.156219
33.685017
43.717284
55.483453
69.352426
85.871153
105.8638
130.41513
161.15305
199.42015
246.59405
297.61716
3.2121286
1.9821395
1.36137
1.1894453
1.1814683
1.2299042
1.3030945
1.3938363
1.5146252
1.6624582
1.8855776
2.2699567
3.1008242
4.8444456
7.9240852
12.425847
18.292994
25.493645
34.072943
44.158938
55.98504
69.923593
86.523847
106.61199
131.2677
162.1024
200.40905
247.43659
297.72486
3.2195266
1.994337
1.3679457
1.1938278
1.1859444
1.235106
1.3088277
1.4006439
1.5223015
1.6721823
1.8996751
2.2974759
3.1622336
4.9656216
8.1150179
12.682161
18.609507
25.868347
34.507073
44.657123
56.555375
70.578113
87.27757
107.48177
132.2652
163.21638
201.57018
248.40537
297.80728
3.2255207
2.0054937
1.3740151
1.1981727
1.1903857
1.2403642
1.3146068
1.407594
1.5301557
1.6822931
1.9146146
2.3275479
3.2302383
5.0996456
8.3257457
12.965697
18.961297
26.287197
34.995319
45.220906
57.204871
71.328028
88.14629
108.48932
133.42613
164.5147
202.92215
249.50816
297.85692
3.2306053
2.0157425
1.3796967
1.2025079
1.1948508
1.2457252
1.3205065
1.4147559
1.5382839
1.6929055