/*--------------------------------*- C++ -*----------------------------------*\
| =========                 |                                                 |
| \\      /  F ield         | OpenFOAM: The Open Source CFD Toolbox           |
|  \\    /   O peration     | Version:  2206                                  |
|   \\  /    A nd           | Website:  www.openfoam.com                      |
|    \\/     M anipulation  |                                                 |
\*---------------------------------------------------------------------------*/
FoamFile
{
    version     2.0;
    format      ascii;
    arch        "LSB;label=32;scalar=64";
    class       volScalarField;
    location    "0";
    object      omega_0;
}
// * * * * * * * * * * * * * * * * * * * * * * * * * * * * * * * * * * * * * //

dimensions      [0 0 -1 0 0 0 0];

internalField   nonuniform List<scalar> 
19794
(
1.3099755
1.3046829
1.3003475
1.297683
1.295787
1.2945627
1.2937343
1.2931586
1.2927328
1.2924057
1.2921527
1.2919574
1.2918056
1.2916856
1.2915876
1.2915044
1.2914311
1.2913649
1.2913041
1.2912482
1.291197
1.2911506
1.2911089
1.2910717
1.2910386
1.291009
1.2909821
1.2909567
1.2909323
1.2909094
1.2908893
1.2908752
1.2908719
1.2908869
1.2909303
1.2910147
1.2911555
1.2913707
1.291681
1.2921101
1.2926806
1.2934141
1.2943376
1.2954888
1.2969141
1.2987049
1.3009332
1.3030001
1.3080086
1.3339802
1.3252076
1.3166207
1.3107577
1.3065774
1.3036898
1.3015246
1.2998725
1.2986225
1.2976852
1.2969649
1.29639
1.2959183
1.2955213
1.2951794
1.2948792
1.2946114
1.29437
1.2941508
1.2939511
1.2937695
1.2936047
1.2934558
1.2933218
1.2932017
1.2930943
1.2929981
1.2929099
1.2928265
1.2927466
1.2926704
1.2926006
1.2925444
1.2925141
1.2925276
1.2926103
1.2927956
1.2931272
1.293662
1.2944766
1.2956728
1.2973776
1.2997515
1.3029883
1.3073024
1.3127905
1.3198301
1.3246658
1.3244862
1.3613637
1.3431998
1.3319889
1.3237223
1.3178742
1.3136224
1.3103687
1.3077966
1.3057661
1.3041878
1.3029262
1.30187
1.300961
1.3001642
1.2994578
1.2988269
1.298261
1.2977524
1.2972946
1.2968827
1.296513
1.2961822
1.2958876
1.2956261
1.2953951
1.2951913
1.2950123
1.2948524
1.2947057
1.2945701
1.2944443
1.2943302
1.2942345
1.2941674
1.2941441
1.2941852
1.2943179
1.294578
1.2950134
1.2956911
1.2967134
1.2982228
1.3004073
1.3035251
1.3079221
1.3140535
1.3228393
1.3337082
1.35173
1.3735555
1.356641
1.3455546
1.336354
1.3294355
1.3239259
1.3195664
1.3160743
1.3132803
1.3110447
1.3092029
1.3076284
1.3062523
1.3050326
1.3039428
1.3029652
1.3020872
1.3012987
1.3005914
1.2999589
1.2993962
1.2988984
1.2984609
1.2980791
1.2977478
1.297462
1.2972173
1.2970065
1.2968229
1.2966635
1.2965263
1.2964126
1.2963266
1.2962757
1.296271
1.2963275
1.2964659
1.2967159
1.2971209
1.2977466
1.2986997
1.3001328
1.3022424
1.3052978
1.3096143
1.315672
1.3242715
1.3352217
1.3520847
1.3828266
1.3652749
1.3551941
1.3465972
1.3396504
1.3334846
1.3282623
1.3238995
1.3203316
1.3174178
1.3149937
1.3129321
1.3111501
1.3095891
1.3082088
1.3069808
1.3058844
1.3049033
1.3040261
1.3032443
1.3025508
1.301939
1.301403
1.3009375
1.3005366
1.3001943
1.2999051
1.299662
1.2994568
1.2992865
1.2991493
1.2990448
1.2989756
1.298948
1.2989714
1.2990596
1.2992326
1.2995202
1.2999668
1.3006397
1.3016411
1.3031173
1.3052517
1.3082924
1.3125091
1.3182391
1.3262576
1.3358181
1.3526203
1.3939686
1.3732489
1.3622704
1.3543001
1.3479817
1.3419955
1.3365244
1.3316199
1.3273921
1.3238099
1.3207832
1.3182184
1.3160339
1.3141597
1.3125393
1.3111278
1.3098894
1.3087967
1.3078293
1.306972
1.3062123
1.3055401
1.304947
1.3044262
1.3039716
1.303577
1.3032374
1.3029464
1.3026956
1.3024827
1.3023076
1.3021696
1.3020724
1.3020245
1.3020387
1.3021329
1.302333
1.3026749
1.3032093
1.3040071
1.3051652
1.3068157
1.3091162
1.312257
1.3164377
1.3217607
1.3290106
1.3370493
1.3507439
1.410677
1.3847652
1.3702182
1.3614069
1.3553763
1.3499907
1.344909
1.340033
1.3355272
1.3314781
1.3279141
1.3248208
1.3221609
1.3198838
1.3179361
1.316266
1.3148269
1.3135793
1.3124909
1.3115354
1.3106916
1.3099429
1.309276
1.3086802
1.3081476
1.3076718
1.3072478
1.3068707
1.3065327
1.3062338
1.3059785
1.3057693
1.3056142
1.3055271
1.3055268
1.3056377
1.3058922
1.3063314
1.3070078
1.3079864
1.3093447
1.3111753
1.313576
1.3166348
1.3204596
1.3249529
1.3309126
1.3372367
1.3471898
1.4327734
1.4017712
1.3820081
1.3703159
1.3632412
1.3580327
1.3535506
1.3492271
1.3450151
1.3409724
1.3371866
1.3337226
1.3306158
1.3278724
1.3254757
1.323395
1.3215926
1.3200299
1.3186703
1.3174807
1.3164325
1.3155023
1.3146716
1.3139254
1.3132524
1.3126445
1.3120963
1.3116046
1.3111608
1.3107675
1.3104358
1.3101717
1.3099878
1.309902
1.3099363
1.310117
1.3104751
1.3110456
1.3118661
1.3129738
1.314402
1.3161787
1.3183244
1.3208323
1.3237698
1.3270102
1.3314003
1.3363744
1.34392
1.4571823
1.4235221
1.3988129
1.3827958
1.3729514
1.3666598
1.3622021
1.3584474
1.354911
1.3514069
1.3479265
1.3445271
1.3412822
1.3382528
1.3354765
1.3329679
1.3307234
1.3287277
1.3269584
1.3253902
1.323998
1.3227588
1.3216532
1.3206646
1.3197797
1.318989
1.3182874
1.317673
1.3171336
1.3166702
1.3162984
1.3160253
1.3158618
1.3158228
1.3159246
1.3161843
1.3166177
1.3172367
1.3180454
1.3190376
1.3201968
1.3214985
1.3229272
1.3244704
1.3262747
1.3283879
1.3317254
1.3363699
1.3434471
1.4807141
1.4474848
1.419877
1.3995777
1.3857812
1.3768646
1.3711389
1.367173
1.3640512
1.3612244
1.3584329
1.3555906
1.3527097
1.3498438
1.3470537
1.3443908
1.3418906
1.3395738
1.3374479
1.3355116
1.3337576
1.3321757
1.3307548
1.329484
1.3283533
1.3273555
1.3264855
1.3257428
1.3251072
1.3245737
1.3241607
1.3238688
1.3236981
1.3236504
1.3237261
1.3239222
1.3242292
1.3246285
1.3250916
1.3255833
1.3260711
1.3265377
1.3270176
1.3276032
1.3286047
1.3303077
1.3336018
1.3389373
1.3468904
1.5022534
1.4711019
1.4431824
1.4201466
1.4024857
1.3899863
1.3816086
1.3761064
1.3724052
1.3696824
1.3673967
1.3652323
1.3630388
1.3607711
1.3584416
1.3560879
1.3537545
1.3514818
1.3493027
1.3472412
1.3453136
1.3435295
1.3418936
1.3404077
1.3390719
1.3378836
1.3368406
1.3359468
1.3351694
1.3344926
1.333938
1.3334953
1.3331477
1.3328798
1.3326737
1.332507
1.3323511
1.3321729
1.3319402
1.3316326
1.3312586
1.3308759
1.3306338
1.3307669
1.3317167
1.3338973
1.3380296
1.3446254
1.3539142
1.5237503
1.4936006
1.4667871
1.4430432
1.4227956
1.4068927
1.3951652
1.3869517
1.3813896
1.37764
1.3750144
1.3730048
1.3712752
1.3696261
1.3679556
1.3662257
1.3644357
1.3626051
1.3607615
1.3589342
1.3571498
1.3554309
1.3537955
1.3522578
1.3508265
1.3495067
1.3483018
1.3472236
1.3462222
1.3452693
1.3443989
1.3435929
1.3428214
1.3420598
1.3412834
1.3404671
1.3395879
1.3386316
1.3376022
1.3365365
1.3355231
1.3347179
1.3343733
1.3348095
1.3364843
1.3397914
1.3452328
1.3532357
1.3637931
1.5499939
1.5171075
1.4904437
1.467031
1.4457131
1.4274759
1.4126882
1.4013336
1.3929949
1.387076
1.3829554
1.380078
1.3779995
1.3763909
1.3750254
1.3737573
1.3725014
1.3712142
1.3698802
1.3685005
1.3670859
1.3656514
1.3642135
1.3627863
1.3613816
1.3600076
1.3586727
1.3574023
1.3561232
1.3547975
1.3534898
1.352184
1.3508501
1.3494702
1.3480334
1.3465363
1.3449891
1.3434229
1.3419006
1.3405272
1.3394632
1.3389276
1.3392074
1.3406205
1.3435447
1.3482872
1.355183
1.3645602
1.3762976
1.5873957
1.5466204
1.5167348
1.4926803
1.4708112
1.4512726
1.4342739
1.420123
1.4088025
1.4000633
1.3935088
1.3886937
1.385193
1.3826374
1.3807272
1.3792318
1.3779816
1.3768572
1.3757784
1.3746945
1.373576
1.3724083
1.3711859
1.3699093
1.368582
1.3672057
1.3657901
1.3643736
1.3628649
1.3612191
1.3595365
1.357822
1.3560567
1.3542438
1.3524017
1.3505637
1.348783
1.3471393
1.3457445
1.3447478
1.3443396
1.3447449
1.3462224
1.3490347
1.3534601
1.3597417
1.3681428
1.3790097
1.3922489
1.6423632
1.5888889
1.5510766
1.5233928
1.4997467
1.4789114
1.4602567
1.4438946
1.4299116
1.4182961
1.4088894
1.4014321
1.3956164
1.3911277
1.3876732
1.3849963
1.3828827
1.3811594
1.3796913
1.3783756
1.377136
1.3759179
1.3746844
1.373412
1.3720851
1.3706929
1.3692402
1.3677634
1.3661788
1.3644324
1.3626365
1.3608379
1.3590329
1.3572472
1.3555282
1.3539409
1.3525705
1.351525
1.350937
1.3509636
1.3517847
1.3535957
1.3566073
1.3610306
1.3670937
1.3750418
1.3851819
1.3980451
1.4135887
1.720047
1.6508161
1.6006075
1.565229
1.5369773
1.5133661
1.4925933
1.4741314
1.4577866
1.4435263
1.4312926
1.4209686
1.4123793
1.4053121
1.3995397
1.3948386
1.3910014
1.3878434
1.3852058
1.3829554
1.380984
1.3792062
1.3775563
1.3759856
1.3744577
1.3729481
1.3714531
1.3699928
1.3685052
1.3669226
1.3653466
1.3638659
1.3624879
1.3612496
1.3602128
1.3594561
1.3590748
1.3591804
1.3599009
1.3613785
1.3637692
1.3672395
1.3719737
1.3781744
1.3860905
1.3960324
1.4084313
1.4240846
1.4428578
1.824145
1.7382579
1.6726653
1.6257436
1.5893078
1.5602332
1.5356674
1.5142753
1.4953052
1.478431
1.4634844
1.4503527
1.4389207
1.4290537
1.4205978
1.4133887
1.4072599
1.4020516
1.3976154
1.3938172
1.3905401
1.3876872
1.3851782
1.3829481
1.3809459
1.3791367
1.3775081
1.3760603
1.3747462
1.3734805
1.3723466
1.3714567
1.3708215
1.3704743
1.370474
1.3708957
1.3718276
1.3733711
1.3756401
1.3787618
1.3828787
1.388152
1.394775
1.4029822
1.4130853
1.4254871
1.4407558
1.459904
1.4824197
1.9582824
1.8560543
1.7738398
1.7126732
1.6647353
1.627044
1.5961443
1.5700324
1.5473387
1.5272848
1.5094105
1.4934464
1.4792141
1.4665746
1.4554007
1.4455672
1.4369479
1.4294171
1.4228549
1.4171487
1.4121932
1.4078955
1.4041765
1.4009684
1.3982155
1.3958787
1.3939378
1.392376
1.3911514
1.3901634
1.389474
1.3892014
1.3893552
1.3899564
1.3910511
1.3927025
1.3949874
1.3979959
1.401833
1.4066214
1.4125069
1.4196664
1.4283227
1.4387577
1.4513519
1.4665828
1.4850993
1.5079385
1.5338761
2.1311231
2.0102925
1.9105752
1.833498
1.7715317
1.7223108
1.682263
1.6490271
1.6207544
1.5962154
1.5745825
1.5553192
1.5380714
1.5225969
1.5087176
1.4962922
1.4851991
1.4753278
1.4665753
1.4588495
1.4520658
1.4461442
1.4410119
1.4366065
1.4328766
1.4297847
1.4273045
1.4254064
1.4240516
1.4231324
1.4226862
1.4228299
1.4235748
1.4249302
1.4269289
1.4296229
1.4330808
1.4373874
1.4426471
1.4489882
1.4565699
1.465592
1.4763096
1.4890454
1.5042211
1.5223242
1.5439577
1.5699378
1.5981581
2.3759993
2.2178202
2.0935504
1.9974202
1.9188887
1.8554719
1.8034898
1.7604407
1.7242014
1.6932036
1.6662827
1.6426059
1.621581
1.602788
1.585924
1.5707651
1.5571398
1.5449116
1.5339665
1.524207
1.5155511
1.5079261
1.5012672
1.4955187
1.4906347
1.4865791
1.4833198
1.4808191
1.479045
1.4778905
1.477367
1.4775905
1.4785824
1.4803465
1.4829067
1.4863093
1.4906203
1.495926
1.5023366
1.509991
1.5190642
1.5297758
1.5424013
1.5572752
1.5748049
1.5953972
1.6194804
1.6475315
1.6766552
2.8030839
2.5438837
2.3595511
2.2271484
2.122738
2.0396879
1.9719593
1.9159518
1.8689441
1.828967
1.7945415
1.7645646
1.7382109
1.7148631
1.6940572
1.6754423
1.6587491
1.6437687
1.6303362
1.6183179
1.6076045
1.598107
1.5897528
1.5824815
1.5762434
1.5709965
1.5666988
1.5633091
1.5608076
1.559089
1.5581322
1.5580578
1.5589068
1.5606852
1.5634151
1.5671426
1.571937
1.5778912
1.5851247
1.5937877
1.6040667
1.616189
1.6304262
1.6470854
1.6665023
1.6889489
1.7146386
1.74391
1.7731524
3.6094165
3.1711541
2.8446882
2.6166678
2.4465551
2.3180992
2.2180749
2.1382939
2.0732176
2.0191133
1.9733793
1.934171
1.9001546
1.8703517
1.8440343
1.8206538
1.7997923
1.7811282
1.764411
1.7494431
1.7360677
1.724161
1.7136241
1.704375
1.696346
1.6894772
1.6837128
1.6790142
1.6753845
1.6726868
1.6708624
1.6700649
1.6703554
1.6717409
1.6742434
1.6779121
1.6828212
1.6890699
1.6967843
1.7061198
1.7172641
1.730439
1.7458998
1.7639271
1.7848295
1.8089076
1.8365303
1.8691131
1.9030491
4.8087613
4.2667218
3.7902224
3.4068859
3.1002438
2.8608693
2.6750868
2.5302358
2.4159948
2.3245743
2.2502559
2.1888927
2.1374788
2.093826
2.056329
2.0237987
1.9953457
1.9702998
1.9481518
1.9285094
1.911066
1.8955818
1.8818705
1.8697865
1.8592121
1.8500461
1.8422029
1.8356303
1.8303386
1.8261896
1.8230511
1.8210665
1.8203611
1.8209496
1.8228567
1.8261409
1.8308932
1.8372371
1.845332
1.8553803
1.8676371
1.8824246
1.9001564
1.9213755
1.946844
1.9776607
2.0156931
2.065925
2.1244222
6.189569
5.6561483
5.1570602
4.7079605
4.3053428
3.9513181
3.6460703
3.3870091
3.1696638
2.9886395
2.8383516
2.7135472
2.6095987
2.5226046
2.4493692
2.387323
2.3344217
2.2890467
2.2499213
2.2160395
2.1866049
2.16098
2.138654
2.1192206
2.1023557
2.0877988
2.0753417
2.0648302
2.0561781
2.0492919
2.0439979
2.040322
2.0384356
2.0384089
2.0403154
2.0442773
2.0504782
2.0591721
2.0707009
2.0855204
2.1042417
2.1276967
2.1570466
2.1939666
2.2409702
2.3018514
2.3831339
2.4955661
2.6377248
7.7896333
7.228212
6.7250714
6.2738675
5.8623981
5.484993
5.1395494
4.8250622
4.5406364
4.2850733
4.0567597
3.853745
3.6738863
3.5149861
3.3748923
3.2515629
3.1431047
3.0477946
2.9640867
2.8906133
2.8261795
2.7697506
2.7204343
2.6774658
2.6401985
2.6080945
2.5807135
2.5577022
2.5388
2.5238597
2.512674
2.5051459
2.5014185
2.5016545
2.5060649
2.5149603
2.5287827
2.5481357
2.573827
2.6069284
2.6488584
2.7014971
2.7673417
2.8497127
2.9530576
3.0834631
3.2499142
3.4626501
3.7251693
9.9668152
9.262753
8.6637955
8.1500458
7.7003995
7.2999555
6.9388832
6.6105579
6.3104113
6.0351949
5.7824917
5.5504044
5.3373648
5.1420166
4.9631408
4.7996125
4.650376
4.514436
4.3908574
4.278767
4.1773595
4.0859017
4.0037341
3.9302703
3.8649975
3.8074775
3.757347
3.7143184
3.6781856
3.6488392
3.6262221
3.610347
3.6013778
3.5995959
3.6053892
3.6192838
3.6419795
3.6743894
3.717696
3.7734229
3.8435347
3.9305705
4.037822
4.1695783
4.331478
4.5310466
4.7783556
5.0857418
5.4618356
13.457838
12.428207
11.575579
10.866659
10.268617
9.7558993
9.3097825
8.9165653
8.5661717
8.2511367
7.9658722
7.7061373
7.4686667
7.2509044
7.0508148
6.8667458
6.6973342
6.541436
6.398081
6.2664393
6.1457994
6.0355525
5.9351836
5.8442639
5.7624455
5.6894584
5.6251103
5.5692888
5.521965
5.4832007
5.4531572
5.4320986
5.420407
5.4186166
5.4274277
5.4477367
5.4806834
5.5277114
5.5906455
5.6717998
5.7741174
5.9013611
6.0583769
6.2514538
6.4888267
6.7813983
7.1437764
7.5955929
8.1532531
19.968813
18.195963
16.771753
15.612136
14.656862
13.85883
13.182943
12.603172
12.100115
11.659191
11.269336
10.922057
10.610768
10.330305
10.076577
9.8463136
9.6368802
9.4461365
9.2723382
9.1140597
8.9701371
8.839627
8.721774
8.6159891
8.5218324
8.4390028
8.3673322
8.3067829
8.2574506
8.2195719
8.1935363
8.179902
8.1794035
8.1930013
8.2219239
8.2677193
8.3323268
8.418174
8.528302
8.6665402
8.8377391
9.0480946
9.3056028
9.6207039
10.007218
10.483743
11.075895
11.819993
12.751432
34.815466
30.831558
27.822673
25.486287
23.624956
22.110719
20.857624
19.805699
18.911816
18.144256
17.479189
16.898435
16.387934
15.936689
15.536005
15.178953
14.859965
14.574544
14.319045
14.09051
13.886543
13.705215
13.544998
13.404711
13.283478
13.180708
13.096071
13.029492
12.981156
12.951507
12.941281
12.951525
12.983627
13.039365
13.121034
13.231524
13.374464
13.554402
13.777072
14.049737
14.381685
14.784891
15.275086
15.873156
16.60742
17.517047
18.657673
20.111084
21.9659
1.3280282
1.3532712
1.3830363
1.3899257
1.4020915
1.4167699
1.4376471
1.4619658
1.4857126
1.5068946
1.5267935
1.5497581
1.5819514
1.6296473
1.6978165
1.7896329
1.9072019
2.0542982
2.2469639
2.5459188
3.0985578
4.0485757
5.2864603
6.6655342
8.332465
10.696255
14.590175
22.097138
40.031557
1.3447833
1.3687705
1.3968287
1.4005862
1.415648
1.4319701
1.4544966
1.4786742
1.5008612
1.520486
1.5403917
1.5659746
1.6035602
1.6587367
1.735325
1.8354275
1.9606532
2.1162516
2.3273918
2.6786052
3.3315535
4.366147
5.6233454
7.0251271
8.7784309
11.336824
15.647836
24.200974
45.220631
1.3650189
1.386233
1.4106205
1.4131929
1.4310166
1.4484279
1.4717767
1.4948147
1.5150674
1.5336019
1.554629
1.5841369
1.6281147
1.69113
1.7758037
1.8833731
2.0154233
2.1803106
2.4163982
2.8331702
3.5882729
4.6845341
5.9515302
7.3854512
9.2406466
12.017843
16.800498
26.537871
50.987144
1.3868979
1.4042769
1.4239677
1.4274275
1.4471347
1.465126
1.4883862
1.5096321
1.5281036
1.5463768
1.5696582
1.604047
1.6548181
1.7253831
1.8172937
1.9312192
2.0693406
2.2451527
2.5136234
3.0056832
3.8540987
4.9900173
6.2652599
7.74269
9.7145996
12.734049
18.040311
29.089597
57.308626
1.4097074
1.4225571
1.437107
1.4430031
1.4634495
1.4816115
1.5039217
1.5231061
1.5402905
1.5592493
1.5857738
1.6256496
1.6831916
1.7606648
1.8587713
1.9779471
2.1217759
2.3112223
2.6201421
3.1933119
4.1203204
5.2796254
6.5667464
8.0992495
10.202132
13.487357
19.368258
31.852259
64.166252
1.4332927
1.4409696
1.450257
1.4595706
1.4795771
1.4975742
1.5182353
1.5354584
1.5520569
1.5726434
1.6031947
1.6488425
1.7128244
1.7963749
1.8996087
2.0230981
2.1728578
2.3797532
2.7372144
3.3928863
4.3814041
5.554156
6.85943
8.4579238
10.705384
14.279694
20.784901
34.820628
71.526663
1.4577146
1.459437
1.4635356
1.4767396
1.4952126
1.5127749
1.5313263
1.5469866
1.563793
1.5868609
1.6219879
1.6734084
1.7432791
1.8319908
1.9393465
2.0664769
2.2230796
2.4521982
2.8655525
3.600563
4.6339802
5.8156387
7.1464571
8.821057
11.226113
15.112385
22.28975
37.986586
79.342126
1.4830647
1.4779231
1.4769819
1.4941318
1.5101288
1.5270702
1.5433101
1.5580088
1.5758156
1.6020728
1.6420797
1.6990326
1.7740951
1.86704
1.977632
2.1080593
2.2731419
2.529947
3.0050284
3.8122236
4.8764129
6.0664551
7.4304657
9.1905276
11.765671
15.986173
23.88129
41.338959
87.552681
1.5094305
1.4964433
1.4905788
1.5114193
1.5241835
1.5404216
1.5543839
1.5688336
1.5883642
1.6183394
1.6632955
1.7253505
1.8048284
1.9011224
2.0142287
2.14799
2.3239039
2.6142072
3.1546933
4.0241011
5.1084196
6.3089886
7.7136344
9.5678385
12.325068
16.901289
25.557052
44.863684
96.088839
1.5368997
1.5150325
1.5042696
1.5283375
1.5373141
1.552877
1.5647863
1.5797359
1.6015999
1.6356298
1.6853949
1.751986
1.8350812
1.9339274
2.0490247
2.1865805
2.3763378
2.7059203
3.3129232
4.2332122
5.3306318
6.5454487
7.9977536
9.9541892
12.905011
17.857518
27.31367
48.54412
104.87431
1.5655502
1.5337118
1.5179738
1.5446855
1.5495238
1.5645448
1.5747654
1.59094
1.6156065
1.6538389
1.7080986
1.7785759
1.8645147
1.9652344
2.0820278
2.2242896
2.4314688
2.8056841
3.4776314
4.4375136
5.5442023
6.7777922
8.2842903
10.350529
13.505951
18.854235
29.146938
52.361421
113.82866
1.5954331
1.5524738
1.5315986
1.560322
1.5608663
1.5755702
1.5845553
1.6026112
1.6303957
1.6728035
1.7311088
1.8047858
1.8928553
1.9949099
2.113356
2.2616974
2.4903121
2.9136965
3.6465279
4.635857
5.7505169
7.007707
8.5744446
10.757601
14.128112
19.890452
31.051873
56.294998
122.86977
1.626565
1.5712846
1.5450476
1.5751586
1.5714306
1.5861161
1.5943612
1.6148525
1.6459147
1.6923179
1.7541269
1.8303216
1.9198971
2.0229047
2.143231
2.2994798
2.5538168
3.029733
3.8173831
4.8278338
5.9510108
7.2366301
8.8691994
11.175972
14.771519
20.964846
33.022802
60.322938
131.916
1.6589333
1.5900912
1.5582292
1.5891521
1.5813266
1.5963451
1.604348
1.6277059
1.6620569
1.7121494
1.7768677
1.8549373
1.9455027
2.0492497
2.1719696
2.338383
2.6228146
3.1531631
3.9882433
5.0135822
6.1470623
7.4657766
9.169361
11.606066
15.436023
22.075792
35.053426
64.422472
140.88818
1.6925097
1.6088353
1.571064
1.6022968
1.5906742
1.6064065
1.6146348
1.6411565
1.6786733
1.7320538
1.7990724
1.8784415
1.9696039
2.0740545
2.1999765
2.3791973
2.6979731
3.2830074
4.1575621
5.1936034
6.339939
7.6961726
9.4755908
12.048184
16.12132
23.221393
37.136937
68.570393
149.71112
1.7272647
1.6274672
1.5834937
1.6146183
1.5995945
1.6164267
1.6252931
1.6551398
1.6955857
1.7517888
1.8205172
1.9006996
1.9921988
2.0975019
2.2277335
2.4227292
2.7797528
3.4180326
4.3242474
5.3686111
6.5307793
7.9286873
9.7884337
12.50252
16.826968
24.399509
39.266093
72.743451
158.31513
1.763181
1.6459593
1.5954876
1.6261699
1.6082052
1.6265048
1.636349
1.6695508
1.7125993
1.7711268
1.8410218
1.9216359
2.0133498
2.1198437
2.2557876
2.4697729
2.8683723
3.5568716
4.4876406
5.5394225
6.7205905
8.1640605
10.108338
12.969183
17.552405
25.607788
41.433334
76.918724
166.63683
1.8002616
1.6643162
1.607048
1.6370288
1.616618
1.6367106
1.6477875
1.6842536
1.729515
1.7898656
1.8604543
1.9412332
2.0331791
2.1413944
2.2847377
2.5210784
2.9637843
3.6981495
4.6474555
5.7068856
6.910259
8.4029256
10.435674
13.448206
18.296962
26.843703
43.63087
81.073951
174.62015
1.8385338
1.6825791
1.6182112
1.6472921
1.6249365
1.6470844
1.6595581
1.6990917
1.7461396
1.8078352
1.8787328
1.9595291
2.051863
2.162523
2.3152187
2.5773194
3.0656706
3.8405954
4.8037007
5.8718335
7.1005662
8.6458305
10.770748
13.939557
19.059881
28.104571
45.850803
85.187834
182.21685
1.8780469
1.7008252
1.6290453
1.6570707
1.6332531
1.6576385
1.6715806
1.7138962
1.7622943
1.8249033
1.8958264
1.9766131
2.0696267
2.1836457
2.3478854
2.639059
3.1734614
3.9831259
4.956601
6.0350588
7.2922034
8.8932545
11.113815
14.443154
19.840325
29.387605
48.085207
89.240307
189.38691
1.9188676
1.7191627
1.6396432
1.6664807
1.6416454
1.6683567
1.6837513
1.7284946
1.7778216
1.8409792
1.9117537
1.9926219
2.0867376
2.2052173
2.3833945
2.7067172
3.2863794
4.1248922
5.1065318
6.1973035
7.4857871
9.1456229
11.465091
14.95887
20.637397
30.689935
50.326243
93.212755
196.09876
1.9610725
1.737723
1.6501142
1.675634
1.6501702
1.6791954
1.6959488
1.7427191
1.7925915
1.8560154
1.9265808
2.0077341
2.1035001
2.2277233
2.422387
2.7805415
3.4035057
4.2652945
5.2539639
6.3592576
7.6818726
9.4033185
11.824759
15.486545
21.45015
32.008642
52.566245
97.08823
202.32932
2.0047403
1.7566518
1.6605732
1.6846269
1.6588584
1.6900842
1.7080402
1.7564141
1.806508
1.8700097
1.9404185
2.0221667
2.1202512
2.2516727
2.4654679
2.8605861
3.5238575
4.4039714
5.399425
6.5215623
7.8809691
9.6666932
12.19298
16.025994
22.277601
33.3408
54.797805
100.85159
208.06373
2.0499461
1.7761017
1.67113
1.6935304
1.6677094
1.7009281
1.7198891
1.7694454
1.8195139
1.8830067
1.9534212
2.0361705
2.1373553
2.2775895
2.5131852
2.9467029
3.6464653
4.5407745
5.5434726
6.6848168
8.0835489
9.9360778
12.569901
16.577015
23.118751
34.6835
57.013861
104.48965
213.29541
2.0967573
1.7962254
1.681881
1.7023819
1.6766886
1.7116108
1.7313634
1.7817083
1.8315975
1.8950994
1.9657836
2.0500264
2.1552008
2.3060064
2.5660089
3.0385478
3.7704423
4.6757357
5.6866761
6.8495865
8.2900596
10.21179
12.955663
17.139402
23.97259
36.033887
59.207773
107.99117
218.02544
2.1452321
1.8171734
1.6929038
1.7111801
1.6857271
1.7220016
1.7423444
1.7931369
1.8427978
1.9064298
1.9777385
2.0640418
2.1741961
2.3374537
2.6243074
3.1356056
3.8950365
4.8090334
5.829609
7.0164112
8.5009335
10.494143
13.350408
17.712947
24.838124
37.389189
61.373379
111.34704
222.26202
2.1954204
1.8390934
1.7042546
1.7198835
1.6947255
1.7319628
1.7527368
1.8037119
1.8532086
1.9171888
1.9895532
2.0785464
2.1947657
2.37245
2.6883279
3.2372284
4.0196631
4.9409627
5.972845
7.1858156
8.7165972
10.783456
13.754287
18.297457
25.714374
38.746751
63.505056
114.55014
226.01934
2.2473628
1.8621298
1.7159685
1.7284131
1.7035616
1.7413614
1.7624793
1.8134677
1.8629804
1.9276133
2.0015251
2.0938877
2.2173451
2.4114891
2.7581787
3.3426879
4.1439192
5.0719096
6.1169588
7.3583174
8.9374813
11.080061
14.167471
18.892758
26.600407
40.104048
65.597767
117.59534
229.31694
2.3010895
1.8864242
1.7280628
1.7366592
1.7121013
1.750082
1.7715548
1.8224975
1.8723209
1.9379826
2.0139754
2.1104255
2.2423758
2.4550255
2.8338203
3.4512322
4.2675867
5.2023334
6.26253
7.5344374
9.1640297
11.38431
14.590157
19.498704
27.495338
41.458733
67.647082
120.47945
232.18046
2.3566103
1.9121134
1.7405422
1.744492
1.7202152
1.7580417
1.7800003
1.8309563
1.8814918
1.94861
2.0272416
2.1285268
2.2702995
2.5034589
2.9150653
3.5621447
4.3906244
5.3327543
6.4101493
7.7147098
9.3967091
11.696588
15.022576
20.115199
28.398353
42.808638
69.649236
123.20127
234.642
2.4138975
1.9393246
1.7534056
1.7517774
1.7277978
1.7652087
1.7879175
1.8390619
1.8908022
1.9598334
2.0416682
2.1485589
2.3015503
2.5571171
3.0015903
3.6747955
4.5131562
5.4637469
6.5604285
7.8996927
9.6360207
12.017321
15.465012
20.742195
29.308724
44.151809
71.60109
125.76141
236.7316
2.4728552
1.9681688
1.7666552
1.7583969
1.7347913
1.7716209
1.7954812
1.8470932
1.9005994
1.9720018
2.0575967
2.1708831
2.3365477
2.6162412
3.0929622
3.788685
4.6354593
5.5959398
6.71401
8.0899814
9.8825116
12.346991
15.917803
21.379714
30.225816
45.486531
73.50018
128.16179
238.47318
2.5332768
1.9987313
1.7803112
1.7642743
1.7412132
1.7774077
1.8029483
1.8553857
1.9112567
1.9854593
2.0753543
2.1958483
2.3756878
2.6809718
3.1886741
3.9034785
4.7579529
5.7300195
6.8715798
8.2862222
10.13679
12.686145
16.381364
22.027857
31.149114
46.811313
75.344661
130.40521
239.88861
2.5947916
2.0310667
1.7944319
1.7694088
1.7471856
1.7828093
1.810662
1.8643234
1.9231573
2.000528
2.0952433
2.2237842
2.4193347
2.7513435
3.2881971
4.0190349
4.8811936
5.8667393
7.0338806
8.4891248
10.399536
13.03541
16.856188
22.686804
32.078204
48.124883
77.133179
132.49461
240.99945
2.6567994
2.0651981
1.8091468
1.773918
1.7529665
1.7881943
1.8190526
1.8743266
1.9366777
2.0174893
2.1175326
2.2549944
2.4678118
2.8272842
3.3910397
4.1354325
5.0058808
6.0069344
7.2017279
8.6994748
10.671509
13.395489
17.342835
23.356786
33.012724
49.426091
78.864736
134.43163
241.83155
2.718405
2.1011243
1.8247011
1.7780871
1.7589787
1.7940692
1.8286298
1.8858342
1.9521679
2.0365661
2.1424516
2.2897509
2.5213974
2.9086343
3.4968263
4.2530083
5.1328839
6.1515652
7.3760624
8.9181959
10.953619
13.767246
17.842029
24.038193
33.952498
50.714086
80.538969
136.21895
242.41672
2.7782873
2.1388586
1.8415334
1.782439
1.7658375
1.8010766
1.8399617
1.8992757
1.9699303
2.0579066
2.1701924
2.3282859
2.5803229
2.9951808
3.60538
4.3723812
5.2632839
6.3018116
7.5581025
9.1465607
11.247202
14.152041
18.355069
24.732081
34.898182
51.989262
82.158011
137.87079
242.79254
2.8348776
2.1783144
1.8602514
1.7877091
1.7743163
1.809946
1.8536268
1.9150328
1.9901894
2.0815698
2.2008913
2.3707799
2.6448168
3.0866985
3.7166453
4.4942619
5.3981878
6.4589029
7.7491659
9.38598
11.553741
14.55135
18.883237
25.439261
35.849699
53.250929
83.723626
139.40963
243.04406
2.8857213
2.2199664
1.8824351
1.7953639
1.7856375
1.8217012
1.8702903
1.93352
2.0131555
2.1076492
2.2349186
2.4177081
2.7151998
3.182643
3.8302545
4.6186903
5.5373505
6.6219458
7.9476097
9.6339464
11.86958
14.959874
19.418508
26.14737
36.786979
54.467494
85.188385
140.78995
243.24791
2.9170253
2.2492045
1.8993749
1.8020118
1.7946149
1.8308627
1.8824981
1.9467368
2.0291083
2.125457
2.2580697
2.449498
2.7622874
3.2452794
3.9030325
4.6979591
5.6258508
6.7250572
8.0718295
9.7869335
12.060705
15.200817
19.722964
26.529159
37.249065
54.97172
85.554115
140.44251
240.75608
2.9295183
2.2626065
1.9077605
1.805775
1.7993493
1.8356722
1.8884856
1.9531095
2.0365268
2.1336668
2.2686628
2.4641008
2.7837046
3.2733922
3.9354664
4.7334229
5.6655675
6.7712782
8.1273404
9.8551849
12.146236
15.309993
19.865003
26.718322
37.507787
55.338835
86.100534
141.32968
242.52062
2.9389602
2.2740214
1.9151531
1.8094468
1.8037281
1.8401899
1.8938813
1.9588959
2.0431297
2.1410704
2.2782276
2.4775235
2.8034753
3.299475
3.9657849
4.7670499
5.7037768
6.8163322
8.1821408
9.9234909
12.233177
15.422996
20.015143
26.923068
37.794972
55.75558
86.726232
142.31968
244.30484
2.9462051
2.2839848
1.9217006
1.8129957
1.8077823
1.8444549
1.8988121
1.9642559
2.0491494
2.1479404
2.2871304
2.4902606
2.8223482
3.3245412
3.9951807
4.8001131
5.7418721
6.8618342
8.2381902
9.994287
12.324604
15.543733
20.178322
27.149538
38.117873
56.229474
87.436957
143.41534
246.13162
2.9517574
2.2928273
1.9275419
1.8164335
1.8115803
1.848536
1.9034105
1.9693355
2.0547876
2.1545012
2.2956838
2.5027455
2.8409862
3.3494834
4.0247129
4.8337862
5.7811865
6.9093707
8.29745
10.070072
12.423764
15.676503
20.360353
27.405733
38.487822
56.77701
88.258418
144.66386
248.10963
2.955981
2.3007686
1.9327911
1.8197835
1.815188
1.852502
1.9077917
1.9742584
2.0602102
2.1609394
2.3041512
2.5153559
2.8599681
3.3750756
4.0553064
4.8691238
5.8229573
6.9604529
8.3618282
10.153319
12.533948
15.825778
20.567467
27.700536
38.917864
57.417902
89.221921
146.11886
250.33679
2.9591643
2.3079604
1.937541
1.823069
1.8186643
1.8564139
1.9120535
1.9791285
2.0655545
2.1674121
2.3127598
2.5284292
2.8798086
3.4020042
4.0877864
4.9070925
5.8683492
7.0165358
8.4332009
10.246511
12.65851
15.996208
20.806247
28.043533
39.422279
58.173805
90.361319
147.83491
252.89431
2.9615545
2.3145122
1.9418748
1.8263121
1.8220635
1.8603248
1.9162792
1.9840319
2.0709348
2.1740525
2.3217074
2.5422682
2.900968
3.4308762
4.1228896
4.9485722
5.9184482
7.0790038
8.5133811
10.352077
12.800786
16.192459
21.083389
28.444494
40.015659
59.066623
91.710184
149.8628
255.84484
2.9633779
2.3205072
1.9458736
1.8295337
1.8254355
1.8642792
1.9205386
1.9890378
2.0764429
2.1809693
2.3311627
2.5571374
2.9238449
3.4622059
4.1612411
4.9943261
5.9742137
7.1490997
8.604018
10.472251
12.963861
16.418883
21.40514
28.912559
40.711514
60.116332
93.298279
152.24448
259.22674
2.9648515
2.3260139
1.9496194
1.8327534
1.8288251
1.8683112
1.9248864
1.9941955
2.0821469
2.1882428
2.3412587
2.5732492
2.9487492
3.4963796
4.2033063
5.0449326
6.036389
7.2278001
8.7064216
10.608825
13.150221
16.67899
21.776545
29.455028
41.520466
61.338152
95.147284
155.00616
263.04739
2.9661864
2.3310948
1.9531984
1.8359875
1.8322703
1.8724419
1.9293603
1.9995312
2.088087
2.1959186
2.3520823
2.5907409
2.9758664
3.5335994
4.2493235
5.1006949
6.1053771
7.3156509
8.8213373
10.762823
13.361301
16.974801
22.200461
30.07593
42.448017
62.73923
97.265654
158.15086
267.27681
2.9675859
2.3358129
1.9567
1.8392477
1.8357999
1.8766769
1.9339775
2.0050439
2.0942714
2.2039992
2.3636601
2.609648
3.0052136
3.5738273
4.2992263
5.1615428
6.181111
7.4125875
8.9486982
10.934169
13.596993
17.306133
22.676532
30.774464
43.492233
64.315237
99.643468
161.65155
271.84498
2.9692424
2.3402321
1.9602154
1.8425397
1.8394323
1.8810045
1.9387328
2.0107038
2.1006729
2.2124402
2.3759467
2.6298803
3.0366021
3.616741
4.3525913
5.2269569
6.2629485
7.5177895
9.0874221
11.121391
13.855233
17.670009
23.200299
31.543707
44.641872
66.047614
102.24865
165.44736
276.64555
2.9713276
2.3444206
1.9638341
1.8458636
1.8431739
1.8853962
1.9435989
2.0164538
2.1072299
2.2211495
2.38882