/*--------------------------------*- C++ -*----------------------------------*\
| =========                 |                                                 |
| \\      /  F ield         | OpenFOAM: The Open Source CFD Toolbox           |
|  \\    /   O peration     | Version:  2206                                  |
|   \\  /    A nd           | Website:  www.openfoam.com                      |
|    \\/     M anipulation  |                                                 |
\*---------------------------------------------------------------------------*/
FoamFile
{
    version     2.0;
    format      ascii;
    arch        "LSB;label=32;scalar=64";
    class       volScalarField;
    location    "0";
    object      omega;
}
// * * * * * * * * * * * * * * * * * * * * * * * * * * * * * * * * * * * * * //

dimensions      [0 0 -1 0 0 0 0];

internalField   nonuniform List<scalar> 
19794
(
1.309977
1.3046837
1.300348
1.2976832
1.2957871
1.2945627
1.2937343
1.2931586
1.2927328
1.2924056
1.2921526
1.2919573
1.2918055
1.2916854
1.2915874
1.2915042
1.291431
1.2913647
1.291304
1.2912482
1.291197
1.2911505
1.2911088
1.2910717
1.2910386
1.291009
1.2909821
1.2909567
1.2909322
1.2909094
1.2908893
1.2908751
1.2908718
1.2908869
1.2909303
1.2910147
1.2911555
1.2913707
1.2916811
1.2921103
1.2926808
1.2934144
1.2943379
1.295489
1.2969143
1.298705
1.3009332
1.3029999
1.3080081
1.3339797
1.325206
1.3166188
1.310756
1.306576
1.3036885
1.3015233
1.2998713
1.2986214
1.2976842
1.296964
1.2963892
1.2959175
1.2955206
1.2951789
1.2948788
1.2946111
1.2943698
1.2941507
1.2939511
1.2937696
1.2936049
1.293456
1.293322
1.2932019
1.2930945
1.2929983
1.2929101
1.2928266
1.2927467
1.2926705
1.2926006
1.2925443
1.2925139
1.2925274
1.2926101
1.2927954
1.293127
1.2936619
1.2944766
1.2956729
1.2973778
1.2997519
1.3029888
1.3073031
1.3127912
1.3198307
1.3246661
1.3244863
1.3613637
1.3431984
1.3319867
1.3237201
1.3178721
1.3136206
1.310367
1.307795
1.3057646
1.3041865
1.3029252
1.3018691
1.3009602
1.3001636
1.2994574
1.2988266
1.2982609
1.2977524
1.2972948
1.296883
1.2965134
1.2961827
1.295888
1.2956266
1.2953955
1.2951917
1.2950127
1.2948527
1.2947059
1.2945702
1.2944443
1.2943301
1.2942343
1.2941671
1.2941436
1.2941847
1.2943174
1.2945775
1.2950129
1.2956906
1.296713
1.2982225
1.3004071
1.3035249
1.3079221
1.3140535
1.3228391
1.3337078
1.3517293
1.3735588
1.356643
1.345555
1.3363534
1.3294345
1.3239248
1.3195655
1.3160736
1.3132798
1.3110444
1.3092028
1.3076284
1.3062524
1.3050327
1.303943
1.3029654
1.3020875
1.3012991
1.3005918
1.2999594
1.2993967
1.298899
1.2984615
1.2980796
1.2977482
1.2974624
1.2972176
1.2970067
1.296823
1.2966635
1.2965262
1.2964123
1.2963262
1.2962752
1.2962704
1.2963268
1.2964652
1.2967151
1.29712
1.2977457
1.2986988
1.3001318
1.3022412
1.3052966
1.3096128
1.3156703
1.3242695
1.3352197
1.352083
1.3828309
1.3652799
1.355198
1.3465996
1.3396515
1.3334851
1.3282627
1.3238999
1.3203321
1.3174186
1.3149945
1.3129331
1.311151
1.30959
1.3082096
1.3069816
1.3058851
1.3049039
1.3040267
1.3032448
1.3025513
1.3019394
1.3014033
1.3009377
1.3005368
1.3001944
1.2999051
1.2996619
1.2994567
1.2992862
1.299149
1.2990444
1.2989751
1.2989475
1.2989709
1.299059
1.299232
1.2995194
1.2999659
1.3006386
1.3016399
1.3031158
1.3052499
1.3082902
1.3125065
1.3182364
1.3262548
1.3358159
1.3526192
1.3939707
1.373254
1.3622763
1.354305
1.3479851
1.3419976
1.3365257
1.3316207
1.3273929
1.3238108
1.3207841
1.3182194
1.3160349
1.3141607
1.3125402
1.3111286
1.3098902
1.3087973
1.3078298
1.3069724
1.3062125
1.3055402
1.304947
1.3044262
1.3039715
1.3035768
1.3032371
1.302946
1.3026953
1.3024823
1.3023072
1.3021692
1.302072
1.3020242
1.3020383
1.3021325
1.3023326
1.3026743
1.3032086
1.3040061
1.3051639
1.3068141
1.3091143
1.3122548
1.3164354
1.3217587
1.3290092
1.3370494
1.3507456
1.4106753
1.3847675
1.3702234
1.3614128
1.3553814
1.3499944
1.3449112
1.3400342
1.3355277
1.3314782
1.3279141
1.3248208
1.3221609
1.3198839
1.3179362
1.3162662
1.314827
1.3135794
1.3124909
1.3115353
1.3106914
1.3099426
1.3092757
1.3086799
1.3081472
1.3076713
1.3072473
1.3068703
1.3065323
1.3062333
1.3059781
1.3057689
1.3056138
1.3055268
1.3055264
1.3056372
1.3058916
1.3063307
1.3070069
1.3079853
1.3093434
1.3111738
1.3135745
1.3166335
1.3204589
1.3249532
1.3309142
1.3372399
1.3471943
1.4327693
1.4017699
1.3820105
1.3703209
1.363247
1.3580378
1.3535543
1.3492293
1.345016
1.3409723
1.3371858
1.3337214
1.3306145
1.327871
1.3254744
1.3233938
1.3215914
1.3200288
1.3186693
1.3174797
1.3164316
1.3155015
1.3146708
1.3139246
1.3132516
1.3126437
1.3120955
1.3116038
1.3111601
1.3107668
1.310435
1.310171
1.309987
1.3099012
1.3099354
1.310116
1.3104739
1.3110444
1.3118647
1.3129724
1.3144007
1.3161776
1.3183239
1.3208327
1.3237712
1.3270129
1.3314043
1.3363793
1.3439251
1.4571791
1.4235186
1.3988121
1.3827985
1.3729564
1.3666657
1.3622076
1.3584517
1.3549138
1.3514083
1.3479266
1.3445262
1.3412806
1.3382507
1.3354741
1.3329654
1.330721
1.3287254
1.3269561
1.3253881
1.323996
1.3227569
1.3216514
1.3206629
1.319778
1.3189875
1.3182858
1.3176714
1.3171321
1.3166687
1.3162968
1.3160236
1.3158601
1.315821
1.3159227
1.3161824
1.3166158
1.3172349
1.3180438
1.3190364
1.3201961
1.3214986
1.3229283
1.3244727
1.3262781
1.3283923
1.3317302
1.3363746
1.343451
1.4807147
1.4474822
1.4198744
1.3995777
1.3857843
1.3768701
1.3711455
1.3671796
1.364057
1.3612289
1.3584359
1.3555922
1.35271
1.349843
1.3470522
1.3443886
1.3418881
1.339571
1.337445
1.3355086
1.3337546
1.3321728
1.330752
1.3294812
1.3283506
1.3273528
1.3264828
1.3257401
1.3251046
1.324571
1.324158
1.3238661
1.3236954
1.3236478
1.3237236
1.3239199
1.3242273
1.3246271
1.3250907
1.3255832
1.326072
1.3265397
1.3270207
1.3276072
1.3286093
1.3303123
1.333606
1.3389407
1.3468925
1.5022588
1.4711029
1.4431806
1.4201451
1.4024864
1.3899899
1.3816146
1.376114
1.3724132
1.3696901
1.3674036
1.3652378
1.363043
1.3607739
1.358443
1.3560883
1.3537539
1.3514805
1.3493007
1.3472388
1.3453109
1.3435266
1.3418905
1.3404045
1.3390687
1.3378804
1.3368374
1.3359436
1.3351663
1.3344895
1.333935
1.3334926
1.3331452
1.3328776
1.3326721
1.3325059
1.3323507
1.3321733
1.3319416
1.3316349
1.3312619
1.33088
1.3306385
1.3307719
1.3317214
1.3339014
1.3380327
1.3446273
1.353915
1.5237589
1.4936063
1.4667887
1.4430425
1.4227952
1.4068942
1.3951693
1.3869582
1.381398
1.3776494
1.3750241
1.3730142
1.3712837
1.3696335
1.3679618
1.3662305
1.3644393
1.3626075
1.3607629
1.3589347
1.3571497
1.3554302
1.3537944
1.3522563
1.3508249
1.3495049
1.3483
1.3472218
1.3462205
1.3452679
1.3443978
1.3435922
1.3428213
1.3420602
1.3412845
1.340469
1.3395907
1.3386352
1.3376066
1.3365417
1.3355287
1.3347238
1.334379
1.3348146
1.3364886
1.3397946
1.3452348
1.3532367
1.3637933
1.5500018
1.5171162
1.4904495
1.4670334
1.4457136
1.4274765
1.4126903
1.4013379
1.3930016
1.3870848
1.3829657
1.3800892
1.378011
1.3764022
1.375036
1.3737671
1.3725102
1.3712221
1.369887
1.3685063
1.3670908
1.3656557
1.3642171
1.3627894
1.3613843
1.3600101
1.3586751
1.3574047
1.3561257
1.3548003
1.353493
1.3521877
1.3508543
1.349475
1.3480388
1.3465423
1.3449957
1.34343
1.3419079
1.3405346
1.3394703
1.3389342
1.3392131
1.3406251
1.3435481
1.3482895
1.3551843
1.3645606
1.3762974
1.5873981
1.5466282
1.516743
1.4926861
1.4708143
1.4512741
1.4342753
1.4201254
1.4088069
1.4000698
1.3935174
1.3887042
1.3852049
1.3826502
1.3807405
1.3792452
1.3779948
1.37687
1.3757907
1.3747062
1.3735871
1.3724188
1.3711958
1.3699187
1.368591
1.3672145
1.3657986
1.3643821
1.3628734
1.3612278
1.3595453
1.357831
1.3560659
1.3542533
1.3524114
1.3505734
1.3487927
1.3471487
1.3457534
1.3447561
1.3443469
1.344751
1.3462273
1.3490383
1.3534625
1.3597431
1.3681433
1.3790094
1.3922478
1.6423566
1.5888911
1.5510832
1.5233997
1.4997519
1.4789146
1.4602585
1.4438962
1.4299139
1.4182999
1.4088951
1.4014399
1.3956261
1.3911392
1.3876861
1.3850104
1.3828975
1.3811748
1.3797069
1.3783913
1.3771516
1.3759333
1.3746996
1.373427
1.3720998
1.3707074
1.3692544
1.3677774
1.3661927
1.364446
1.36265
1.3608511
1.3590458
1.3572598
1.3555403
1.3539524
1.3525813
1.3515348
1.3509458
1.3509711
1.3517908
1.3536005
1.3566107
1.3610328
1.3670949
1.375042
1.3851812
1.3980433
1.4135855
1.7200303
1.650809
1.600608
1.565233
1.5369819
1.5133697
1.4925955
1.4741325
1.4577873
1.4435274
1.4312948
1.4209724
1.4123849
1.4053195
1.399549
1.3948496
1.3910138
1.3878571
1.3852205
1.3829708
1.381
1.3792226
1.3775729
1.3760023
1.3744744
1.3729647
1.3714695
1.3700089
1.368521
1.3669379
1.3653614
1.36388
1.3625013
1.3612622
1.3602243
1.3594666
1.359084
1.3591884
1.3599074
1.3613836
1.363773
1.367242
1.3719749
1.3781745
1.3860895
1.3960304
1.4084282
1.42408
1.4428513
1.8241203
1.7382404
1.6726562
1.6257405
1.589308
1.5602343
1.5356681
1.514275
1.495304
1.4784294
1.4634828
1.4503518
1.4389209
1.4290552
1.4206009
1.4133934
1.4072662
1.4020593
1.3976245
1.3938275
1.3905514
1.3876992
1.3851908
1.3829611
1.3809592
1.37915
1.3775214
1.3760733
1.3747589
1.3734926
1.3723581
1.3714674
1.3708313
1.3704831
1.3704817
1.3709021
1.3718327
1.3733749
1.3756426
1.378763
1.3828787
1.3881509
1.3947728
1.4029789
1.413081
1.4254817
1.4407491
1.4598957
1.4824095
1.9582543
1.8560286
1.7738206
1.7126604
1.6647275
1.6270391
1.5961405
1.5700286
1.5473343
1.5272796
1.5094047
1.4934404
1.4792083
1.4665692
1.4553961
1.4455636
1.4369455
1.4294159
1.4228548
1.4171498
1.4121953
1.4078984
1.4041803
1.4009727
1.3982203
1.3958837
1.3939429
1.3923811
1.3911562
1.3901679
1.3894779
1.3892047
1.3893577
1.389958
1.3910518
1.3927022
1.3949861
1.3979936
1.4018297
1.4066171
1.4125017
1.4196603
1.4283158
1.43875
1.4513434
1.4665732
1.4850886
1.5079265
1.5338633
2.1310977
2.0102634
1.9105483
1.8334758
1.7715144
1.7222974
1.6822521
1.6490174
1.6207448
1.5962054
1.5745719
1.555308
1.5380597
1.5225848
1.5087055
1.4962802
1.4851875
1.4753168
1.4665649
1.4588398
1.4520568
1.4461358
1.4410042
1.4365994
1.4328699
1.4297784
1.4272984
1.4254004
1.4240456
1.4231264
1.42268
1.4228233
1.4235679
1.4249228
1.4269209
1.4296144
1.4330717
1.4373778
1.442637
1.4489776
1.4565588
1.4655804
1.4762977
1.4890329
1.5042082
1.5223108
1.5439439
1.569924
1.5981454
2.375984
2.2177944
2.0935212
1.997392
1.9188635
1.8554501
1.8034708
1.7604237
1.7241854
1.6931879
1.6662668
1.6425894
1.6215639
1.6027701
1.5859055
1.5707461
1.5571205
1.5448921
1.533947
1.5241877
1.5155319
1.5079072
1.5012486
1.4955005
1.4906169
1.4865616
1.4833026
1.4808021
1.4790283
1.4778739
1.4773505
1.4775741
1.478566
1.4803301
1.4828903
1.4862929
1.4906038
1.4959096
1.5023202
1.5099746
1.5190478
1.5297595
1.5423851
1.5572591
1.5747892
1.5953819
1.619466
1.6475189
1.6766459
2.8030879
2.5438702
2.3595274
2.2271204
2.1227093
2.0396605
1.9719338
1.9159281
1.8689218
1.8289456
1.7945205
1.7645435
1.7381894
1.7148409
1.6940343
1.6754187
1.6587248
1.6437439
1.6303109
1.6182923
1.6075787
1.5980811
1.5897269
1.5824556
1.5762178
1.570971
1.5666736
1.5632841
1.560783
1.5590647
1.5581082
1.5580342
1.5588836
1.5606624
1.5633927
1.5671206
1.5719154
1.5778701
1.5851041
1.5937677
1.6040473
1.6161702
1.6304082
1.6470683
1.6664865
1.6889349
1.7146271
1.7439022
1.7731496
3.6094446
3.1711628
2.844681
2.6166501
2.4465313
2.3180726
2.2180477
2.138267
2.0731914
2.0190878
1.9733544
1.9341464
1.9001301
1.870327
1.8440091
1.8206281
1.7997661
1.7811015
1.7643837
1.7494154
1.7360396
1.7241327
1.7135956
1.7043464
1.6963174
1.6894487
1.6836845
1.6789862
1.6753568
1.6726594
1.6708355
1.6700385
1.6703296
1.6717157
1.6742189
1.6778883
1.6827982
1.6890477
1.696763
1.7060995
1.7172449
1.730421
1.7458833
1.7639125
1.7848173
1.8088984
1.8365252
1.8691132
1.9030549
4.8088066
4.2667523
3.7902387
3.4068895
3.1002373
2.8608553
2.6750678
2.5302138
2.4159713
2.3245501
2.2502314
2.188868
2.1374542
2.0938013
2.0563042
2.0237737
1.9953205
1.9702743
1.9481261
1.9284833
1.9110397
1.8955553
1.8818438
1.8697598
1.8591854
1.8500195
1.8421764
1.8356041
1.8303127
1.8261641
1.8230261
1.821042
1.8203372
1.8209265
1.8228343
1.8261194
1.8308727
1.8372177
1.8453138
1.8553634
1.8676218
1.8824112
1.9001452
1.9213672
1.9468392
1.9776602
2.0156979
2.0659358
2.124439
6.1896269
5.6561938
5.1570939
4.7079836
4.3053569
3.9513245
3.6460705
3.3870043
3.1696551
2.988628
2.8383378
2.7135319
2.6095821
2.5225872
2.4493511
2.3873044
2.3344027
2.2890274
2.2499016
2.2160196
2.1865848
2.1609597
2.1386336
2.1192001
2.1023353
2.0877784
2.0753213
2.0648101
2.0561582
2.0492724
2.0439789
2.0403036
2.0384178
2.0383919
2.0402993
2.0442623
2.0504643
2.0591597
2.07069
2.0855114
2.104235
2.1276927
2.1570461
2.1939701
2.2409785
2.3018653
2.3831541
2.4955923
2.6377561
7.789704
7.2282723
6.7251213
6.2739076
5.8624296
5.4850172
5.1395676
4.8250756
4.5406461
4.2850799
4.0567639
3.8537474
3.6738873
3.5149861
3.3748914
3.2515611
3.1431023
3.0477917
2.9640833
2.8906094
2.8261751
2.7697458
2.7204291
2.6774604
2.6401928
2.6080887
2.5807077
2.5576964
2.5387943
2.5238542
2.512669
2.5051415
2.5014148
2.5016517
2.5060632
2.51496
2.528784
2.5481389
2.5738324
2.6069364
2.6488695
2.7015118
2.7673603
2.8497357
2.9530854
3.0834956
3.2499509
3.4626898
3.7252108
9.9668995
9.262829
8.6638628
8.1501048
7.7004508
7.2999998
6.9389214
6.610591
6.3104403
6.0352206
5.7825149
5.5504257
5.3373847
5.1420355
4.963159
4.7996302
4.6503933
4.514453
4.3908742
4.2787836
4.1773758
4.0859179
4.0037502
3.9302862
3.8650132
3.8074932
3.7573627
3.7143342
3.6782015
3.6488554
3.6262388
3.6103642
3.6013958
3.5996148
3.6054092
3.6193052
3.6420024
3.6744141
3.7177227
3.7734519
3.8435662
3.9306046
4.0378588
4.1696179
4.3315201
4.5310909
4.7784015
5.0857885
5.4618827
13.457937
12.428299
11.575665
10.866738
10.26869
9.7559666
9.3098445
8.9166227
8.5662251
8.2511868
7.9659194
7.7061822
7.4687097
7.2509459
7.0508552
6.8667853
6.697373
6.5414743
6.3981188
6.2664768
6.1458365
6.0355894
5.9352203
5.8443004
5.7624818
5.6894946
5.6251465
5.569325
5.5220013
5.4832372
5.453194
5.4321358
5.4204447
5.418655
5.4274667
5.4477767
5.4807244
5.5277535
5.5906889
5.6718445
5.7741634
5.9014085
6.0584257
6.2515038
6.4888778
6.7814504
7.1438292
7.5956465
8.1533076
19.968931
18.196074
16.771859
15.612236
14.656957
13.858921
13.183031
12.603256
12.100195
11.659268
11.26941
10.922129
10.610839
10.330373
10.076643
9.8463789
9.6369442
9.4461994
9.2724
9.1141205
8.970197
8.8396861
8.7218324
8.6160469
8.5218895
8.4390594
8.3673883
8.3068385
8.2575058
8.2196269
8.1935911
8.1799567
8.1794582
8.193056
8.2219787
8.2677744
8.3323823
8.4182299
8.5283583
8.6665971
8.8377966
9.0481527
9.3056617
9.6207635
10.007279
10.483805
11.075958
11.820058
12.751499
34.815609
30.831694
27.822804
25.486413
23.625078
22.110838
20.85774
19.805811
18.911926
18.144363
17.479293
16.898537
16.388033
15.936786
15.5361
15.179046
14.860056
14.574634
14.319133
14.090596
13.886627
13.705298
13.54508
13.404791
13.283557
13.180786
13.096147
13.029568
12.98123
12.951581
12.941354
12.951597
12.983699
13.039436
13.121105
13.231594
13.374535
13.554473
13.777143
14.049807
14.381756
14.784963
15.275159
15.873231
16.607496
17.517125
18.657755
20.111169
21.96599
1.3280297
1.3532714
1.3830375
1.3899293
1.4020935
1.4167686
1.4376429
1.4619618
1.4857121
1.5068992
1.5268018
1.5497666
1.5819552
1.6296425
1.6978015
1.7896096
1.9071743
2.0542723
2.2469463
2.5459171
3.0985791
4.0486185
5.2865162
6.665601
8.3325432
10.696346
14.590279
22.097262
40.031709
1.3447846
1.3687708
1.3968304
1.4005891
1.4156481
1.431967
1.4544918
1.4786714
1.5008631
1.5204927
1.5404006
1.5659812
1.60356
1.6587268
1.7353056
1.8354017
1.9606262
2.1162295
2.3273814
2.6786139
3.3315861
4.3661982
5.6234075
7.0251991
8.7785136
11.336919
15.647945
24.201104
45.220792
1.3650201
1.3862333
1.4106221
1.4131944
1.4310146
1.4484236
1.4717723
1.4948139
1.5150717
1.53361
1.5546372
1.5841405
1.6281098
1.6911153
1.775781
1.8833466
2.0153987
2.1802942
2.4163966
2.8331901
3.5883159
4.6845923
5.9515976
7.3855277
9.2407333
12.017941
16.800612
26.538007
50.987315
1.3868994
1.4042769
1.4239687
1.4274272
1.447131
1.4651211
1.4883829
1.5096335
1.5281099
1.5463853
1.5696645
1.6040467
1.6548085
1.7253644
1.817269
1.9311936
2.06932
2.2451432
2.5136313
3.0057141
3.8541506
4.9900811
6.2653317
7.7427703
9.7146896
12.734151
18.040429
29.089739
57.308809
1.4097094
1.4225567
1.4371073
1.4430009
1.4634446
1.4816068
1.5039201
1.5231096
1.5402979
1.5592571
1.5857773
1.6256451
1.6831777
1.7606432
1.8587461
1.977924
2.1217605
2.3112205
2.62016
3.1933531
4.1203794
5.2796936
6.5668216
8.0993328
10.202225
13.487462
19.368381
31.852408
64.16645
1.4332956
1.4409686
1.4502564
1.4595666
1.4795717
1.4975703
1.5182356
1.5354637
1.5520648
1.5726496
1.6031949
1.6488338
1.712807
1.7963516
1.8995846
2.0230788
2.1728487
2.3797598
2.7372422
3.3929363
4.3814684
5.5542274
6.8595077
8.4580095
10.70548
14.279803
20.785028
34.820787
71.526878
1.4577184
1.4594353
1.463534
1.4767341
1.4952074
1.5127723
1.5313285
1.5469932
1.5638004
1.5868647
1.6219843
1.6733959
1.7432591
1.8319672
1.9393247
2.0664625
2.2230775
2.4522134
2.8655895
3.6006203
4.6340483
5.8157125
7.1465368
8.8211445
11.22621
15.112497
22.289882
37.986754
79.342362
1.4830692
1.4779205
1.4769794
1.4941254
1.5101242
1.5270691
1.5433141
1.558016
1.5758219
1.6020738
1.6420725
1.6990169
1.7740736
1.8670174
1.9776138
2.1080505
2.2731472
2.5299707
3.0050739
3.8122862
4.8764835
6.0665303
7.4305468
9.1906165
11.765771
15.986287
23.881427
41.339137
87.55294
1.5094356
1.4964398
1.4905755
1.5114124
1.52418
1.5404221
1.5543893
1.5688408
1.5883688
1.6183373
1.663285
1.7253325
1.8048067
1.9011021
2.014215
2.1479875
2.3239166
2.6142391
3.1547459
4.0241675
5.1084916
6.3090646
7.7137163
9.5679286
12.325169
16.901407
25.557195
44.863874
96.089126
1.5369052
1.5150282
1.5042657
1.5283306
1.5373119
1.552879
1.5647926
1.5797423
1.6016022
1.6356246
1.6853817
1.7519668
1.8350604
1.9339103
2.0490162
2.1865845
2.3763578
2.7059597
3.3129815
4.2332809
5.3307044
6.5455251
7.9978359
9.9542802
12.905114
17.857639
27.313819
48.544323
104.87463
1.5655558
1.5337066
1.5179696
1.544679
1.5495232
1.5645481
1.574772
1.5909452
1.6156064
1.653831
1.7080833
1.7785563
1.8644958
1.9652213
2.0820248
2.2243001
2.4314957
2.8057301
3.4776937
4.4375832
5.5442746
6.7778684
8.2843727
10.350621
13.506055
18.854359
29.147094
52.361638
113.82901
1.5954387
1.552468
1.5315943
1.5603162
1.5608671
1.5755745
1.5845618
1.6026147
1.630393
1.6727931
1.7310923
1.804767
1.8928392
1.9949014
2.1133588
2.2617141
2.4903454
2.9137479
3.6465928
4.6359266
5.7505885
7.0077825
8.5745268
10.757693
14.128218
19.89058
31.052037
56.29523
122.87016
1.6265705
1.5712783
1.5450436
1.5751538
1.5714327
1.586121
1.5943671
1.6148542
1.6459096
1.6923056
1.75411
1.8303044
1.9198846
2.0229012
2.1432395
2.2995024
2.5538557
3.0297886
3.8174491
4.8279025
5.9510813
7.2367048
8.8692813
11.176065
14.771627
20.964977
33.022973
60.323186
131.91643
1.6589388
1.5900848
1.5582256
1.5891486
1.58133
1.5963503
1.6043529
1.6277056
1.6620497
1.712136
1.7768514
1.8549227
1.9454945
2.0492516
2.1719837
2.3384109
2.6228582
3.1532214
3.9883091
5.0136495
6.1471313
7.4658503
9.1694424
11.606159
15.436133
22.075927
35.053605
64.422738
140.88864
1.6925152
1.6088291
1.5710613
1.6022946
1.5906785
1.6064115
1.6146384
1.6411542
1.6786645
1.7320399
1.7990574
1.87843
1.9696002
2.0740615
2.1999957
2.3792298
2.6980202
3.2830672
4.1576269
5.1936687
6.3400064
7.6962452
9.4756718
12.048277
16.121431
23.221532
37.137124
68.570677
149.71163
1.7272703
1.6274615
1.5834919
1.6146175
1.5995995
1.6164313
1.6252953
1.6551357
1.6955758
1.7517753
1.8205044
1.9006919
1.9921999
2.0975139
2.2277572
2.4227655
2.7798025
3.4180926
4.3243103
5.3686742
6.5308449
7.9287587
9.788514
12.502613
16.82708
24.399652
39.266289
72.743754
158.31567
1.7631868
1.6459545
1.595487
1.6261704
1.6082106
1.6265087
1.6363498
1.6695452
1.7125889
1.7711144
1.8410118
1.9216324
2.0133556
2.1198602
2.2558151
2.469812
2.8684234
3.5569307
4.4877012
5.5394832
6.7206542
8.1641306
10.108418
12.969277
17.552519
25.607935
41.433539
76.919046
166.63742
1.8002678
1.6643124
1.6070486
1.6370305
1.6166237
1.6367136
1.647787
1.6842471
1.7295048
1.789855
1.8604475
1.9412339
2.0331894
2.1414149
2.2847682
2.5211194
2.9638357
3.6982068
4.6475134
5.706944
6.910321
8.4029945
10.435753
13.4483
18.297078
26.843855
43.631085
81.074292
174.62077
1.8385402
1.6825765
1.6182131
1.6472948
1.6249422
1.6470866
1.6595564
1.6990846
1.7461303
1.8078269
1.8787297
1.959534
2.0518774
2.1625467
2.3152514
2.5773613
3.0657214
3.8406504
4.8037557
5.8718896
7.1006264
8.6458983
10.770827
13.939652
19.059999
28.104728
45.851028
85.188194
182.21751
1.8780536
1.7008238
1.6290483
1.6570742
1.6332586
1.6576398
1.6715782
1.7138891
1.7622864
1.8248978
1.895827
1.9766221
2.0696445
2.1836719
2.3479193
2.639101
3.1735107
3.9831783
4.9566532
6.0351126
7.292262
8.8933212
11.113894
14.443249
19.840445
29.387767
48.085442
89.240686
189.3876
1.9188744
1.7191624
1.6396471
1.6664848
1.6416505
1.6683573
1.6837484
1.7284882
1.7778156
1.8409769
1.9117582
1.9926345
2.0867583
2.2052451
2.3834288
2.7067583
3.2864267
4.1249416
5.1065812
6.1973552
7.4858442
9.1456886
11.465169
14.958966
20.63752
30.690101
50.326487
93.213154
196.09949
1.9610793
1.7377237
1.6501188
1.6756383
1.6501748
1.6791954
1.6959458
1.7427138
1.7925879
1.8560164
1.9265888
2.0077499
2.1035229
2.2277519
2.4224208
2.7805812
3.4035506
4.2653409
5.2540108
6.3593074
7.6819284
9.4033834
11.824837
15.486641
21.450275
32.008813
52.5665
97.088647
202.33008
2.004747
1.7566534
1.6605783
1.6846314
1.6588625
1.6900839
1.7080376
1.7564104
1.806507
1.870014
1.9404298
2.022185
2.1202754
2.2517011
2.4655005
2.8606238
3.5238997
4.4040151
5.3994696
6.5216104
7.8810237
9.6667575
12.193058
16.026091
22.277729
33.340977
54.79807
100.85203
208.06452
2.0499528
1.7761041
1.6711354
1.6935349
1.667713
1.7009278
1.7198874
1.7694437
1.8195158
1.8830142
1.9534353
2.0361906
2.1373799
2.2776172
2.513216
2.9467383
3.6465048
4.5408155
5.5435152
6.6848635
8.0836025
9.9361415
12.569979
16.577114
23.118882
34.683682
57.014136
104.4901
213.29622
2.0967639
1.7962285
1.6818866
1.7023864
1.6766918
1.7116109
1.7313629
1.7817089
1.8316023
1.8951097
1.9657999
2.0500476
2.155225
2.3060325
2.5660374
3.0385808
3.7704793
4.6757744
5.6867169
6.8496319
8.2901125
10.211853
12.955741
17.139502
23.972724
36.034075
59.208058
107.99164
218.02627
2.1452388
1.8171773
1.6929096
1.7111847
1.6857302
1.7220023
1.7423454
1.79314
1.8428054
1.9064426
1.9777563
2.0640632
2.1742193
2.3374777
2.6243334
3.1356361
3.8950712
4.8090702
5.8296485
7.0164557
8.5009858
10.494206
13.350486
17.713049
24.838261
37.389383
61.373673
111.34752
222.26286
2.1954271
1.8390979
1.7042606
1.7198883
1.6947289
1.7319647
1.7527395
1.8037174
1.8532185
1.9172034
1.9895718
2.0785672
2.194787
2.3724714
2.6883514
3.2372568
4.0196958
4.9409979
5.9728834
7.1858595
8.7166493
10.78352
13.754367
18.29756
25.714514
38.746951
63.50536
114.55063
226.0202
2.2473697
1.862135
1.7159748
1.7284185
1.7035654
1.7413647
1.7624839
1.8134755
1.8629922
1.9276291
2.0015436
2.0939071
2.2173639
2.4115076
2.7581996
3.3427143
4.1439503
5.0719435
6.1169965
7.3583609
8.9375333
11.080125
14.167552
18.892863
26.60055
40.104254
65.598081
117.59585
229.31781
2.3010967
1.8864303
1.7280696
1.7366654
1.712106
1.7500869
1.7715612
1.8225071
1.8723341
1.9379986
2.013993
2.1104428
2.2423918
2.455041
2.8338388
3.451257
4.2676166
5.2023665
6.2625672
7.5344808
9.1640819
11.384374
14.590239
19.498812
27.495485
41.458945
67.647405
120.47997
232.18134
2.3566178
1.9121204
1.7405496
1.7444993
1.7202211
1.7580484
1.7800085
1.8309673
1.8815055
1.9486254
2.0272574
2.1285413
2.2703123
2.5034714
2.9150819
3.5621684
4.3906534
5.332787
6.4101864
7.7147534
9.3967618
11.696653
15.02266
20.115309
28.398505
42.808857
69.649568
123.2018
234.64288
2.4139055
1.9393327
1.7534138
1.7517861
1.727805
1.7652171
1.7879269
1.8390736
1.8908155
1.9598475
2.0416815
2.1485702
2.3015597
2.5571269
3.0016055
3.6748186
4.5131848
5.4637795
6.5604658
7.8997367
9.6360742
12.017388
15.465097
20.742308
29.30888
44.152035
71.601431
125.76195
236.73248
2.4728639
1.9681782
1.7666644
1.7584072
1.7347999
1.7716308
1.7954914
1.8471048
1.9006116
1.9720136
2.0576069
2.1708909
2.3365537
2.6162487
3.0929765
3.7887079
4.6354879
5.5959727
6.7140479
8.0900262
9.8825661
12.347059
15.917891
21.379831
30.225977
45.486763
73.500531
128.16234
238.47406
2.5332864
1.9987423
1.7803215
1.7642862
1.741223
1.7774185
1.8029585
1.8553965
1.9112669
1.9854682
2.075361
2.1958525
2.3756907
2.6809776
3.1886881
3.9035016
4.7579819
5.7300529
6.8716184
8.2862679
10.136846
12.686215
16.381454
22.027977
31.14928
46.811552
75.34502
130.40577
239.88948
2.5948027
2.0310795
1.7944435
1.7694222
1.7471961
1.7828204
1.8106715
1.8643324
1.9231648
2.0005335
2.0952463
2.2237848
2.419335
2.7513483
3.2882116
4.0190586
4.8812233
5.8667735
7.0339203
8.4891718
10.399593
13.035482
16.856281
22.686928
32.078377
48.12513
77.133548
132.49518
241.00032
2.6568125
2.0652131
1.8091596
1.7739323
1.7529771
1.7882047
1.8190606
1.8743331
1.936682
2.0174911
2.1175319
2.2549919
2.4678102
2.8272889
3.391055
4.1354572
5.0059114
6.0069697
7.2017688
8.6995233
10.671568
13.395564
17.342932
23.356915
33.012902
49.426346
78.865114
134.43221
241.83241
2.7184208
2.1011418
1.8247148
1.7781017
1.7589884
1.7940778
1.8286352
1.8858373
1.9521686
2.0365642
2.1424477
2.2897459
2.5213948
2.9086396
3.4968431
4.2530343
5.1329157
6.1516018
7.3761048
8.9182463
10.953681
13.767323
17.84213
24.038327
33.952684
50.71435
80.539358
136.21953
242.41758
2.7783065
2.1388786
1.8415474
1.7824528
1.7658453
1.8010823
1.8399637
1.8992751
1.9699273
2.0579012
2.1701857
2.3282792
2.5803203
2.9951876
3.6053986
4.3724087
5.263317
6.3018497
7.5581466
9.1466133
11.247267
14.152122
18.355174
24.732221
34.898375
51.989536
82.158411
137.87138
242.7934
2.834901
2.1783369
1.8602649
1.7877208
1.7743209
1.8099478
1.8536247
1.915028
1.9901828
2.0815615
2.2008826
2.3707726
2.6448151
3.0867075
3.716666
4.494291
5.3982224
6.4589426
7.749212
9.3860351
11.553808
14.551435
18.883348
25.439408
35.849901
53.251213
83.724039
139.41023
243.04492
2.885749
2.2199907
1.882447
1.7953719
1.7856378
1.8216982
1.8702839
1.9335114
2.0131459
2.1076389
2.234909
2.4177013
2.7152003
3.1826548
3.8302775
4.6187211
5.5373867
6.6219873
7.9476581
9.6340044
11.869651
14.959963
19.418624
26.147524
36.78719
54.46779
85.18881
140.79057
243.24877
2.9170558
2.2492297
1.8993851
1.8020168
1.7946119
1.8308564
1.8824888
1.9467259
2.0290971
2.1254458
2.2580601
2.4494921
2.7622896
3.2452932
3.9030569
4.6979909
5.625888
6.7251
8.0718795
9.7869934
12.060779
15.20091
19.723084
26.529318
37.249282
54.972023
85.554547
140.44313
240.75694
2.92955
2.2626319
1.9077697
1.8057784
1.7993448
1.8356643
1.8884751
1.9530976
2.036515
2.1336553
2.2686534
2.4640955
2.7837077
3.2734069
3.9354914
4.7334551
5.6656052
6.7713215
8.1273911
9.8552457
12.146311
15.310088
19.865125
26.718484
37.508006
55.339141
86.100969
141.33031
242.52149
2.9389929
2.2740469
1.9151615
1.8094489
1.8037222
1.8401808
1.8938698
1.9588833
2.0431175
2.1410589
2.2782184
2.4775188
2.8034793
3.2994904
3.9658105
4.7670825
5.7038149
6.8163761
8.1821921
9.9235525
12.233253
15.423092
20.015267
26.923231
37.795195
55.75589
86.726672
142.32031
244.30571
2.9462385
2.2840103
1.921708
1.8129964
1.8077752
1.8444446
1.8987998
1.9642428
2.049137
2.1479289
2.2871216
2.4902565
2.822353
3.3245574
3.9952068
4.800146
5.7419105
6.8618785
8.2382422
9.9943495
12.32468
15.543829
20.178447
27.149703
38.118098
56.229788
87.437402
143.41597
246.1325
2.9517913
2.2928527
1.9275486
1.816433
1.8115721
1.8485248
1.9033975
1.969322
2.054775
2.1544898
2.2956753
2.502742
2.8409918
3.3495004
4.0247395
4.8338195
5.7812253
6.9094155
8.2975027
10.070135
12.423842
15.676601
20.36048
27.405901
38.488051
56.777328
88.258869
144.6645
248.11052
2.9560155
2.3007938
1.9327969
1.819782
1.8151788
1.8524899
1.9077782
1.9742445
2.0601974
2.1609281
2.304143
2.5153531
2.8599746
3.3750933
4.0553334
4.8691575
5.8229965
6.9604983
8.3618816
10.153383
12.534028
15.825878
20.567596
27.700707
38.918096
57.418225
89.222378
146.11951
250.33768
2.9591992
2.3079855
1.9375461
1.8230665
1.8186542
1.8564011
1.9120394
1.9791143
2.0655417
2.167401
2.3127521
2.5284271
2.879816
3.4020226
4.087814
4.9071265
5.8683889
7.0165818
8.4332551
10.246576
12.658591
15.99631
20.806379
28.043708
39.422517
58.174135
90.361784
147.83557
252.89521
2.9615898
2.3145371
1.9418792
1.8263085
1.8220526
1.8603113
1.9162647
1.9840175
2.070922
2.1740416
2.3217002
2.5422669
2.9009763
3.4308954
4.1229176
4.9486067
5.9184883
7.0790504
8.5134362
10.352143
12.800868
16.192563
21.083524
28.444673
40.015902
59.06696
91.710659
149.86347
255.84575
2.9634135
2.3205318
1.9458773
1.8295291
1.8254238
1.864265
1.9205237
1.9890232
2.0764302
2.1809587
2.331156
2.557137
2.9238542
3.4622259
4.1612696
4.994361
5.9742543
7.149147
8.6040742
10.472319
12.963945
16.41899
21.405279
28.912743
40.711764
60.116678
93.298766
152.24517
259.22766
2.9648875
2.3260383
1.9496225
1.8327479
1.8288127
1.8682964
1.9248712
1.9941808
2.0821342
2.1882326
2.3412526
2.5732497
2.9487595
3.4964004
4.2033354
5.0449679
6.0364301
7.2278483
8.7064789
10.608894
13.150308
16.6791
21.776687
29.455218
41.520724
61.338509
95.147785
155.00686
263.04832
2.9662226
2.3311189
1.9532007
1.8359812
1.8322571
1.8724266
1.9293448
1.9995164
2.0880745
2.1959088
2.352077
2.5907423
2.9758778
3.533621
4.2493531
5.1007307
6.1054189
7.3156999
8.821396
10.762895
13.36139
16.974914
22.200609
30.076127
42.448284
62.7396
97.266172
158.15157
267.27776
2.9676224
2.3358367
1.9567017
1.8392405
1.8357861
1.8766611
1.9339617
2.0050291
2.0942592
2.2039899
2.3636555
2.6096505
3.0052262
3.5738497
4.2992565
5.1615791
6.1811535
7.4126375
8.9487583
10.934243
13.597085
17.30625
22.676685
30.774668
43.492511
64.315623
99.644005
161.65229
271.84595
2.9692791
2.3402556
1.9602165
1.8425316
1.8394178
1.8809882
1.9387168
2.0106891
2.100661
2.2124315
2.375943
2.629884
3.0366158
3.6167643
4.352622
5.2269937
6.2629918
7.5178407
9.0874839
11.121467
13.855329
17.670132
23.200459
31.543921
44.642163
66.048016
102.24921
165.44812
276.64653
2.9713645
2.3444438
1.9638345
1.8458547
1.8431589
1.8853795
1.9435828
2.0164392
2.1072184
2.2211414
2.3888172
2.6512165
3.0696421