/*--------------------------------*- C++ -*----------------------------------*\
| =========                 |                                                 |
| \\      /  F ield         | OpenFOAM: The Open Source CFD Toolbox           |
|  \\    /   O peration     | Version:  2206                                  |
|   \\  /    A nd           | Website:  www.openfoam.com                      |
|    \\/     M anipulation  |                                                 |
\*---------------------------------------------------------------------------*/
FoamFile
{
    version     2.0;
    format      ascii;
    arch        "LSB;label=32;scalar=64";
    class       volScalarField;
    location    "0";
    object      p;
}
// * * * * * * * * * * * * * * * * * * * * * * * * * * * * * * * * * * * * * //

dimensions      [1 -1 -2 0 0 0 0];

internalField   nonuniform List<scalar> 
19794
(
101239.82
101264.44
101287.98
101309.81
101328.98
101346.02
101361.97
101376.59
101390.09
101402.59
101414.22
101425.11
101435.42
101445.37
101455.16
101464.98
101474.95
101485.13
101495.55
101506.18
101516.99
101527.98
101539.09
101550.29
101561.54
101572.79
101583.99
101595.1
101606.07
101616.85
101627.39
101637.66
101647.7
101657.58
101667.43
101677.41
101687.75
101698.62
101710.19
101722.52
101735.61
101749.29
101763.31
101777.4
101791.26
101804.32
101815.77
101824.17
101829.2
101266.2
101279.42
101294.49
101311.6
101328.53
101344.79
101359.83
101373.9
101387.21
101399.84
101411.84
101423.25
101434.14
101444.66
101454.98
101465.26
101475.62
101486.15
101496.86
101507.75
101518.8
101529.97
101541.2
101552.46
101563.71
101574.91
101586.01
101596.96
101607.69
101618.12
101628.2
101637.91
101647.21
101656.12
101664.71
101673.06
101681.26
101689.35
101697.27
101704.91
101712
101718.06
101722.55
101724.85
101724.23
101719.67
101710.1
101691.63
101666.36
101251.56
101273.66
101292.65
101310.91
101327.77
101343.58
101358.3
101372.27
101385.6
101398.36
101410.59
101422.31
101433.57
101444.45
101455.12
101465.71
101476.35
101487.15
101498.12
101509.27
101520.57
101531.95
101543.4
101554.83
101566.2
101577.42
101588.45
101599.19
101609.56
101619.5
101628.97
101637.94
101646.41
101654.44
101662.11
101669.52
101676.77
101683.91
101690.89
101697.58
101703.75
101709.21
101713.81
101717.48
101720.26
101721.92
101722.78
101721.67
101730.38
101244.12
101266.33
101287.03
101307.12
101325.52
101342.42
101357.98
101372.62
101386.5
101399.75
101412.42
101424.53
101436.13
101447.31
101458.19
101468.92
101479.65
101490.45
101501.37
101512.44
101523.63
101534.93
101546.28
101557.61
101568.86
101579.94
101590.77
101601.28
101611.42
101621.14
101630.38
101639.17
101647.55
101655.59
101663.41
101671.1
101678.79
101686.5
101694.24
101701.93
101709.42
101716.51
101723
101728.66
101733.22
101736.12
101737.4
101735.6
101730.6
101237.57
101260.42
101281.84
101302.73
101322.11
101340.04
101356.58
101372.06
101386.66
101400.56
101413.82
101426.48
101438.58
101450.2
101461.44
101472.43
101483.32
101494.17
101505.05
101516.01
101527.09
101538.24
101549.42
101560.54
101571.55
101582.39
101593
101603.33
101613.32
101622.9
101632.09
101640.93
101649.45
101657.73
101665.88
101673.97
101682.06
101690.18
101698.3
101706.31
101714.05
101721.28
101727.77
101733.22
101737.31
101739.49
101739.64
101736.33
101733.86
101229.64
101253.85
101276.41
101298.02
101318.08
101336.71
101353.98
101370.15
101385.42
101399.93
101413.79
101427.01
101439.67
101451.81
101463.51
101474.9
101486.06
101497.08
101508.07
101519.08
101530.12
101541.17
101552.2
101563.15
101573.99
101584.66
101595.1
101605.24
101615.04
101624.51
101633.65
101642.49
101651.06
101659.45
101667.73
101675.95
101684.15
101692.33
101700.42
101708.32
101715.84
101722.77
101728.92
101734.08
101738.09
101740.55
101741.57
101740.42
101740.98
101220.96
101246.18
101269.9
101292.37
101313.22
101332.54
101350.48
101367.29
101383.16
101398.27
101412.7
101426.5
101439.71
101452.38
101464.59
101476.4
101487.9
101499.18
101510.34
101521.44
101532.51
101543.53
101554.48
101565.34
101576.04
101586.53
101596.78
101606.76
101616.45
101625.82
101634.89
101643.7
101652.28
101660.71
101669.04
101677.32
101685.57
101693.78
101701.88
101709.75
101717.25
101724.22
101730.49
101735.94
101740.46
101743.69
101745.88
101746.58
101748.35
101211.87
101237.77
101262.41
101285.66
101307.32
101327.39
101346.05
101363.53
101380.05
101395.78
101410.81
101425.19
101438.98
101452.21
101464.92
101477.18
101489.06
101500.64
101512.01
101523.23
101534.33
101545.33
101556.21
101566.96
101577.54
101587.91
101598.03
101607.9
101617.48
101626.78
101635.83
101644.64
101653.28
101661.8
101670.24
101678.64
101687.02
101695.35
101703.59
101711.61
101719.29
101726.5
101733.11
101739
101744.05
101747.99
101750.97
101752.67
101755.19
101202.24
101228.74
101254.15
101278.06
101300.46
101321.27
101340.66
101358.85
101376.05
101392.43
101408.09
101423.09
101437.47
101451.26
101464.5
101477.23
101489.51
101501.42
101513.03
101524.4
101535.57
101546.57
101557.41
101568.07
101578.55
101588.82
101598.84
101608.62
101618.15
101627.43
101636.5
101645.39
101654.13
101662.79
101671.4
101679.99
101688.56
101697.09
101705.53
101713.76
101721.67
101729.15
101736.09
101742.38
101747.88
101752.38
101755.99
101758.55
101761.88
101191.96
101219.01
101245.14
101269.68
101292.77
101314.29
101334.4
101353.31
101371.21
101388.26
101404.56
101420.17
101435.14
101449.49
101463.25
101476.46
101489.16
101501.42
101513.3
101524.85
101536.14
101547.19
101558.03
101568.67
101579.09
101589.3
101599.27
101609.01
101618.53
101627.83
101636.96
101645.95
101654.84
101663.68
101672.49
101681.3
101690.11
101698.88
101707.54
101716.02
101724.19
101731.96
101739.24
101745.92
101751.88
101756.94
101761.23
101764.68
101768.85
101181.05
101208.6
101235.4
101260.57
101284.35
101306.58
101327.42
101347.05
101365.66
101383.38
101400.31
101416.53
101432.07
101446.96
101461.23
101474.9
101488.02
101500.64
101512.81
101524.6
101536.06
101547.22
101558.13
101568.79
101579.22
101589.42
101599.39
101609.14
101618.69
101628.05
101637.28
101646.4
101655.47
101664.51
101673.56
101682.63
101691.7
101700.75
101709.69
101718.45
101726.94
101735.06
101742.75
101749.88
101756.35
101762.01
101767
101771.29
101776.2
101169.57
101197.58
101225.04
101250.82
101275.31
101298.27
101319.86
101340.22
101359.53
101377.92
101395.49
101412.3
101428.4
101443.81
101458.56
101472.69
101486.22
101499.2
101511.7
101523.76
101535.44
101546.77
101557.8
101568.56
101579.05
101589.3
101599.31
101609.11
101618.74
101628.2
101637.56
101646.86
101656.14
101665.43
101674.76
101684.12
101693.5
101702.86
101712.13
101721.25
101730.11
101738.66
101746.82
101754.46
101761.48
101767.75
101773.43
101778.48
101784.04
101157.61
101186.06
101214.18
101240.6
101265.81
101289.5
101311.84
101332.94
101352.97
101372.04
101390.24
101407.64
101424.28
101440.2
101455.43
101470
101483.94
101497.31
101510.15
101522.51
101534.45
101545.99
101557.21
101568.1
101578.71
101589.06
101599.17
101609.06
101618.82
101628.43
101637.98
101647.5
101657.03
101666.62
101676.26
101685.96
101695.69
101705.41
101715.06
101724.58
101733.89
101742.92
101751.59
101759.77
101767.37
101774.26
101780.59
101786.33
101792.48
101145.22
101174.15
101202.95
101230.03
101255.98
101280.42
101303.53
101325.38
101346.13
101365.88
101384.72
101402.7
101419.89
101436.32
101452.03
101467.05
101481.41
101495.17
101508.36
101521.04
101533.26
101545.07
101556.5
101567.58
101578.36
101588.86
101599.12
101609.17
101619.12
101628.94
101638.73
101648.52
101658.37
101668.28
101678.28
101688.35
101698.46
101708.59
101718.66
101728.62
101738.41
101747.96
101757.18
101765.94
101774.12
101781.64
101788.63
101794.99
101801.69
101132.37
101161.85
101191.4
101219.2
101245.92
101271.15
101295.05
101317.67
101339.16
101359.6
101379.09
101397.68
101415.43
101432.39
101448.58
101464.05
101478.85
101493
101506.57
101519.59
101532.12
101544.2
101555.87
101567.18
101578.18
101588.89
101599.38
101609.66
101619.86
101629.96
101640.06
101650.19
101660.39
101670.68
101681.07
101691.54
101702.07
101712.61
101723.14
101733.57
101743.88
101753.97
101763.74
101773.08
101781.87
101790.02
101797.61
101804.55
101811.77
101118.91
101149.11
101179.52
101208.15
101235.7
101261.77
101286.5
101309.93
101332.18
101353.36
101373.52
101392.75
101411.08
101428.58
101445.28
101461.23
101476.46
101491.03
101504.97
101518.35
101531.21
101543.59
101555.55
101567.14
101578.41
101589.4
101600.18
101610.79
101621.32
101631.78
101642.26
101652.79
101663.39
101674.1
101684.9
101695.79
101706.75
101717.75
101728.73
101739.66
101750.48
101761.12
101771.45
101781.36
101790.73
101799.47
101807.64
101815.14
101822.78
101104.54
101135.7
101167.15
101196.76
101225.26
101252.26
101277.89
101302.19
101325.27
101347.22
101368.11
101388.01
101406.97
101425.04
101442.28
101458.73
101474.43
101489.43
101503.79
101517.54
101530.76
101543.49
101555.78
101567.7
101579.31
101590.66
101601.82
101612.82
101623.77
101634.67
101645.6
101656.58
101667.64
101678.79
101690.04
101701.38
101712.79
101724.23
101735.68
101747.1
101758.42
101769.57
101780.45
101790.92
101800.83
101810.11
101818.82
101826.8
101834.79
101088.8
101121.22
101153.99
101184.8
101214.42
101242.49
101269.13
101294.4
101318.39
101341.18
101362.86
101383.49
101403.13
101421.84
101439.66
101456.65
101472.86
101488.34
101503.15
101517.34
101530.97
101544.1
101556.8
101569.14
101581.17
101592.96
101604.57
101616.06
101627.5
101638.91
101650.34
101661.82
101673.38
101685.02
101696.74
101708.54
101720.41
101732.31
101744.22
101756.1
101767.91
101779.55
101790.93
101801.91
101812.34
101822.12
101831.28
101839.65
101847.92
101071.1
101105.15
101139.56
101171.87
101202.84
101232.18
101260
101286.36
101311.38
101335.12
101357.68
101379.13
101399.53
101418.94
101437.42
101455.04
101471.83
101487.87
101503.21
101517.91
101532.04
101545.68
101558.88
101571.72
101584.27
101596.6
101608.75
101620.8
101632.79
101644.77
101656.75
101668.78
101680.87
101693.03
101705.25
101717.53
101729.86
101742.22
101754.58
101766.92
101779.18
101791.28
101803.11
101814.54
101825.43
101835.65
101845.2
101853.89
101862.41
101050.49
101086.67
101123.17
101157.37
101190.01
101220.87
101250.09
101277.75
101303.95
101328.79
101352.37
101374.77
101396.05
101416.28
101435.55
101453.89
101471.39
101488.1
101504.09
101519.44
101534.2
101548.45
101562.28
101575.75
101588.92
101601.88
101614.66
101627.33
101639.95
101652.54
101665.13
101677.75
101690.4
101703.1
101715.84
101728.61
101741.41
101754.23
101767.03
101779.8
101792.48
101805
101817.24
101829.07
101840.35
101850.95
101860.83
101869.81
101878.57
101025.57
101064.54
101103.86
101140.49
101175.23
101207.97
101238.9
101268.13
101295.76
101321.93
101346.72
101370.24
101392.58
101413.8
101434
101453.24
101471.59
101489.13
101505.93
101522.07
101537.62
101552.66
101567.25
101581.48
101595.41
101609.1
101622.61
101636
101649.3
101662.57
101675.8
101689.04
101702.28
101715.54
101728.82
101742.1
101755.38
101768.65
101781.89
101795.07
101808.14
101821.03
101833.62
101845.81
101857.44
101868.39
101878.61
101887.87
101896.92
100997.38
101037.66
101079.88
101119.79
101157.44
101192.7
101225.8
101256.94
101286.32
101314.08
101340.37
101365.29
101388.94
101411.41
101432.78
101453.15
101472.59
101491.18
101509
101526.13
101542.65
101558.63
101574.15
101589.28
101604.09
101618.64
101632.98
101647.16
101661.23
101675.24
101689.17
101703.07
101716.94
101730.79
101744.62
101758.43
101772.2
101785.94
101799.61
101813.19
101826.64
101839.88
101852.82
101865.34
101877.33
101888.64
101899.21
101908.78
101918.17
100968.04
101008.18
101051.35
101093.47
101133.92
101172.34
101208.62
101242.71
101274.72
101304.79
101333.09
101359.8
101385.06
101409.02
101431.79
101453.5
101474.23
101494.09
101513.14
101531.49
101549.2
101566.35
101583
101599.23
101615.11
101630.68
101646
101661.11
101676.05
101690.93
101705.63
101720.26
101734.82
101749.32
101763.76
101778.13
101792.43
101806.66
101820.79
101834.79
101848.63
101862.22
101875.51
101888.37
101900.72
101912.43
101923.45
101933.56
101944.01
100928.5
100973.32
101020.18
101065.14
101107.38
101147.41
101185.61
101222.09
101256.85
101289.89
101321.2
101350.83
101378.88
101405.43
101430.59
101454.49
101477.23
101498.93
101519.7
101539.63
101558.82
101577.36
101595.34
101612.83
101629.9
101646.61
101663.01
101679.15
101695.05
101710.82
101726.38
101741.82
101757.13
101772.32
101787.41
101802.39
101817.26
101832.02
101846.66
101861.14
101875.45
101889.52
101903.3
101916.7
101929.6
101941.85
101953.23
101963.19
101972.88
100868.09
100919.53
100973.68
101025.99
101074.21
101118.72
101160.1
101198.87
101235.43
101270.09
101303.09
101334.6
101364.71
101393.53
101421.11
101447.52
101472.83
101497.09
101520.38
101542.78
101564.36
101585.18
101605.33
101624.88
101643.9
101662.44
101680.56
101698.31
101715.73
101732.87
101749.74
101766.37
101782.8
101799.03
101815.08
101830.95
101846.63
101862.11
101877.37
101892.34
101906.97
101921.15
101934.71
101947.45
101959.08
101969.21
101977.39
101983.21
101988.43
100783.33
100842.79
100904.94
100965.54
101021.83
101074.1
101122.82
101168.3
101210.78
101250.54
101287.83
101322.91
101356.04
101387.43
101417.28
101445.77
101473.04
101499.21
101524.39
101548.67
101572.13
101594.83
101616.84
101638.21
101658.99
101679.23
101698.97
101718.24
101737.07
101755.5
101773.57
101791.25
101808.57
101825.52
101842.08
101858.23
101873.92
101889.12
101903.76
101917.74
101930.97
101943.31
101954.64
101964.82
101973.73
101981.27
101987.43
101992.91
102001.41
100670.62
100735.17
100803.29
100869.56
100930.87
100987.71
101040.78
101090.47
101137.08
101180.91
101222.21
101261.23
101298.17
101333.22
101366.55
101398.32
101428.67
101457.73
101485.61
101512.44
101538.28
101563.25
101587.39
101610.8
101633.52
101655.61
101677.12
101698.07
101718.5
101738.43
101757.86
101776.79
101795.24
101813.21
101830.71
101847.72
101864.23
101880.24
101895.71
101910.64
101925.02
101938.84
101952.11
101964.84
101977.09
101988.81
101999.96
102011.41
102027.19
100530.23
100617.38
100703.09
100785.75
100862.29
100933.1
100998.96
101060.36
101117.69
101171.31
101221.55
101268.73
101313.11
101354.95
101394.47
101431.86
101467.32
101501.01
101533.06
101563.63
101592.83
101620.77
101647.55
101673.25
101697.96
101721.75
101744.69
101766.84
101788.25
101808.98
101829.07
101848.58
101867.55
101886.01
101904
101921.53
101938.65
101955.39
101971.8
101987.93
102003.83
102019.57
102035.24
102050.95
102066.84
102083
102099.34
102116.61
102140.24
100296.43
100387.61
100476.73
100562.74
100641.95
100714.81
100782.48
100845.62
100904.75
100960.3
101012.65
101062.14
101109.06
101153.65
101196.14
101236.73
101275.59
101312.89
101348.76
101383.33
101416.73
101449.04
101480.38
101510.83
101540.49
101569.42
101597.71
101625.44
101652.67
101679.47
101705.9
101732.02
101757.88
101783.54
101809.05
101834.47
101859.85
101885.24
101910.68
101936.21
101961.88
101987.71
102013.7
102039.85
102066.16
102092.6
102118.66
102142.45
102165.29
101229.85
101268.65
101235.89
101233.23
101222.73
101212.78
101202.88
101192.67
101182.01
101170.84
101159.17
101147
101134.35
101121.2
101107.46
101092.87
101077.05
101059.51
101039.57
101015.26
100983.47
100948.1
100912.5
100864.31
100797.09
100703.35
100585.53
100424.04
100191.48
101214
101266.18
101223.81
101226.53
101213.07
101203.42
101193.36
101182.96
101172.17
101160.91
101149.16
101136.92
101124.18
101110.9
101096.96
101082.05
101065.73
101047.42
101026.32
101000.31
100967.97
100934.57
100897.25
100842.62
100768.54
100664.99
100539.47
100353.45
100120.92
101196.76
101262.27
101211.33
101219.4
101202.7
101194.06
101183.65
101173.06
101162.12
101150.72
101138.83
101126.43
101113.52
101100.02
101085.75
101070.37
101053.37
101034.11
101011.54
100983.47
100950.69
100918.14
100877.81
100817.69
100737.82
100625.08
100492.37
100281.03
100053.93
101181.41
101259.16
101200.05
101213.09
101193.15
101185.77
101174.7
101163.94
101152.78
101141.15
101129.03
101116.4
101103.21
101089.37
101074.66
101058.68
101040.86
101020.5
100996.29
100966.22
100933.13
100899.61
100855.13
100789.95
100704.79
100583.37
100443.94
100208.2
99989.851
101167.2
101256.6
101189.46
101207.42
101184.29
101178.3
101166.39
101155.58
101144.18
101132.34
101120.01
101107.14
101093.68
101079.49
101064.31
101047.69
101029.04
101007.56
100981.67
100950.04
100916.94
100881.35
100832.39
100762.32
100671.93
100542.08
100396.34
100138
99930.765
101153.34
101254.05
101179.08
101202.03
101175.73
101171.24
101158.43
101147.71
101136.09
101124.09
101111.58
101098.51
101084.79
101070.26
101054.62
101037.39
101017.92
100995.32
100967.78
100935.19
100902.08
100863.8
100810.56
100735.79
100640.27
100502.33
100350.84
100072.36
99878.099
101139.75
101251.45
101168.9
101196.84
101167.38
101164.5
101150.75
101140.22
101128.38
101116.27
101103.6
101090.34
101076.38
101061.52
101045.43
101027.59
101007.32
100983.58
100954.51
100921.51
100888.11
100846.83
100789.64
100710.43
100610.03
100464.52
100308.03
100012.4
99832.443
101126.55
101248.9
101159.02
101191.88
101159.29
101158.1
101143.37
101133.12
101121.04
101108.84
101096.03
101082.59
101068.39
101053.2
101036.66
101018.21
100997.15
100972.24
100941.9
100908.92
100874.75
100830.37
100769.59
100686.23
100581.25
100428.84
100268.26
99958.819
99793.855
101113.8
101246.45
101149.46
101187.17
101151.49
101152.02
101136.29
101126.39
101114.06
101101.8
101088.85
101075.25
101060.81
101045.29
101028.3
101009.27
100987.42
100961.34
100930.05
100897.33
100861.91
100814.51
100750.46
100663.22
100554.06
100395.52
100231.84
99911.977
99762.078
101101.47
101244.08
101140.22
101182.66
101143.96
101146.25
101129.51
101120
101107.41
101095.13
101082.04
101068.29
101053.62
101037.78
101020.36
101000.75
100978.11
100950.9
100919.08
100886.6
100849.57
100799.33
100732.3
100641.46
100528.56
100364.71
100198.96
99871.967
99736.686
101089.52
101241.76
101131.26
101178.34
101136.67
101140.74
101122.99
101113.92
101101.07
101088.8
101075.58
101061.68
101046.79
101030.65
101012.8
100992.63
100969.21
100940.98
100909.02
100876.61
100837.75
100784.91
100715.15
100621.02
100504.86
100336.57
100169.77
99838.678
99717.15
101077.91
101239.49
101122.57
101174.19
101129.62
101135.48
101116.72
101108.13
101095.01
101082.78
101069.43
101055.41
101040.31
101023.87
101005.62
100984.91
100960.72
100931.63
100899.86
100867.24
100826.46
100771.29
100699.06
100601.97
100483.03
100311.19
100144.32
99811.83
99702.909
101066.63
101237.25
101114.13
101170.19
101122.78
101130.44
101110.68
101102.6
101089.23
101077.05
101063.59
101049.45
101034.15
101017.43
100998.79
100977.57
100952.62
100922.91
100891.54
100858.41
100815.77
100758.5
100684.06
100584.35
100463.15
100288.63
100122.59
99791.029
99693.417
101055.64
101235.05
101105.92
101166.32
101116.15
101125.6
101104.87
101097.32
101083.69
101071.6
101058.02
101043.79
101028.3
101011.32
100992.32
100970.59
100944.92
100914.88
100883.98
100850.09
100805.7
100746.57
100670.17
100568.2
100445.26
100268.91
100104.53
99775.823
99688.174
101044.93
101232.88
101097.94
101162.58
101109.72
101120.96
101099.26
101092.28
101078.4
101066.4
101052.73
101038.41
101022.75
101005.53
100986.18
100963.98
100937.67
100907.57
100877.1
100842.25
100796.28
100735.53
100657.41
100553.56
100429.39
100252.01
100090
99765.736
99686.745
101034.46
101230.72
101090.16
101158.95
101103.47
101116.5
101093.86
101087.46
101073.33
101061.45
101047.69
101033.3
101017.49
101000.04
100980.38
100957.73
100930.87
100901
100870.82
100834.91
100787.55
100725.39
100645.8
100540.45
100415.56
100237.89
100078.88
99760.296
99688.756
101024.22
101228.58
101082.58
101155.43
101097.39
101112.2
101088.64
101082.84
101068.49
101056.74
101042.9
101028.46
101012.5
100994.86
100974.91
100951.83
100924.58
100895.15
100865.07
100828.09
100779.54
100716.16
100635.37
100528.88
100403.75
100226.5
100071
99759.055
99693.899
101014.18
101226.45
101075.16
101152.01
101091.48
101108.06
101083.61
101078.41
101063.84
101052.25
101038.34
101023.88
101007.79
100989.97
100969.76
100946.3
100918.84
100889.97
100859.8
100821.81
100772.25
100707.85
100626.12
100518.88
100393.95
100217.75
100066.2
99761.602
99701.921
101004.31
101224.32
101067.92
101148.67
101085.72
101104.07
101078.74
101074.17
101059.41
101047.97
101034.02
101019.54
101003.35
100985.38
100964.93
100941.13
100913.67
100885.42
100854.99
100816.08
100765.7
100700.47
100618.07
100510.42
100386.14
100211.55
100064.31
99767.565
99712.621
100994.6
101222.2
101060.82
101145.42
101080.1
101100.22
101074.05
101070.11
101055.16
101043.91
101029.93
101015.45
100999.18
100981.08
100960.42
100936.35
100909.09
100881.43
100850.63
100810.94
100759.9
100694.04
100611.22
100503.51
100380.27
100207.81
100065.17
99776.619
99725.841
100985.03
101220.07
101053.86
101142.24
101074.62
101096.51
101069.51
101066.22
101051.11
101040.05
101026.05
101011.6
100995.27
100977.07
100956.24
100931.99
100905.11
100877.97
100846.73
100806.4
100754.86
100688.56
100605.57
100498.14
100376.32
100206.42
100068.63
99788.48
99741.465
100975.58
101217.95
101047.03
101139.15
101069.28
101092.93
101065.13
101062.51
101047.24
101036.4
101022.4
101007.99
100991.62
100973.35
100952.38
100928.06
100901.72
100874.98
100843.29
100802.48
100750.59
100684.03
100601.13
100494.28
100374.22
100207.28
100074.54
99802.904
99759.406
100966.23
101215.81
101040.32
101136.13
101064.05
101089.48
101060.9
101058.95
101043.56
101032.95
101018.98
101004.63
100988.24
100969.92
100948.85
100924.59
100898.9
100872.44
100840.34
100799.19
100747.1
100680.46
100597.88
100491.91
100373.93
100210.3
100082.76
99819.684
99779.602
100956.96
101213.67
101033.72
101133.18
101058.95
101086.16
101056.83
101055.57
101040.07
101029.69
101015.77
101001.5
100985.13
100966.8
100945.67
100921.6
100896.62
100870.33
100837.89
100796.54
100744.39
100677.86
100595.82
100491.01
100375.39
100215.36
100093.16
99838.643
99802.006
100947.76
101211.53
101027.23
101130.3
101053.96
101082.97
101052.9
101052.35
101036.76
101026.65
101012.79
100998.63
100982.29
100963.98
100942.85
100919.12
100894.85
100868.64
100835.97
100794.55
100742.46
100676.22
100594.94
100491.55
100378.56
100222.38
100105.63
99859.625
99826.573
100938.62
101209.37
101020.84
101127.49
101049.09
101079.91
101049.11
101049.3
101033.64
101023.81
101010.04
100996.01
100979.74
100961.47
100940.41
100917.14
100893.55
100867.39
100834.58
100793.22
100741.34
100675.55
100595.23
100493.5
100383.36
100231.25
100120.06
99882.49
99853.256
100929.52
101207.21
101014.55
101124.77
101044.33
101076.99
101045.47
101046.43
101030.72
101021.18
101007.53
100993.64
100977.46
100959.28
100938.37
100915.68
100892.71
100866.58
100833.75
100792.57
100741.01
100675.85
100596.68
100496.83
100389.76
100241.89
100136.33
99907.11
99881.999
100920.47
101205.05
101008.35
101122.12
101039.67
101074.22
101041.98
101043.74
101027.99
101018.77
101005.26
100991.55
100975.49
100957.42
100936.74
100914.73
100892.31
100866.23
100833.51
100792.61
100741.5
100677.11
100599.28
100501.51
100397.68
100254.2
100154.34
99933.363
99912.725
100911.44
101202.88
101002.24
101119.57
101035.12
101071.6
101038.64
101041.25
101025.46
101016.6
101003.25
100989.73
100973.82
100955.91
100935.56
100914.28
100892.35
100866.36
100833.86
100793.34
100742.8
100679.34
100603.02
100507.49
100407.08
100268.1
100173.99
99961.135
99945.166
100902.43
101200.72
100996.22
101117.12
101030.68
101069.16
101035.45
101038.96
101023.15
101014.67
101001.5
100988.2
100972.48
100954.78
100934.84
100914.32
100892.83
100867.01
100834.83
100794.78
100744.93
100682.53
100607.88
100514.76
100417.91
100283.49
100195.17
99990.292
99978.424
100893.45
101198.58
100990.29
101114.8
101026.34
101066.92
101032.41
101036.91
101021.06
101013
101000.04
100986.98
100971.47
100954.03
100934.61
100914.86
100893.76
100868.18
100836.43
100796.95
100747.9
100686.69
100613.85
100523.28
100430.12
100300.3
100217.79
100020.67
100012.69
100884.49
101196.47
100984.44
101112.62
101022.09
101064.9
101029.52
101035.11
101019.2
101011.61
100998.86
100986.09
100970.82
100953.69
100934.88
100915.88
100895.17
100869.93
100838.68
100799.85
100751.71
100691.81
100620.92
100533.02
100443.65
100318.44
100241.77
100052.08
100048.61
100875.55
101194.43
100978.67
101110.63
101017.94
101063.15
101026.79
101033.61
101017.58
101010.53
100998
100985.54
100970.54
100953.8
100935.66
100917.39
100897.08
100872.26
100841.61
100803.51
100756.38
100697.9
100629.09
100543.94
100458.46
100337.81
100267.01
100084.27
100085.96
100866.64
101192.49
100972.96
101108.88
101013.86
101061.72
101024.2
101032.44
101016.2
101009.79
100997.47
100985.36
100970.67
100954.38
100936.99
100919.42
100899.54
100875.22
100845.21
100807.92
100761.89
100704.93
100638.3
100555.98
100474.48
100358.31
100293.38
100117.04
100124.37
100857.75
101190.74
100967.29
101107.46
101009.84
101060.69
101021.74
101031.67
101015.08
101009.43
100997.29
100985.59
100971.22
100955.47
100938.86
100921.98
100902.58
100878.85
100849.56
100813.15
100768.32
100712.97
100648.65
100569.21
100491.79
100379.99
100320.94
100150.55
100163.55
100848.87
101189.28
100961.61
101106.47
101005.82
101060.17
101019.37
101031.4
101014.19
101009.53
100997.48
100986.27
100972.22
100957.1
100941.31
100925.13
100906.3
100883.3
100854.87
100819.51
100776.08
100722.52
100660.71
100584.22
100510.97
100403.32
100350.02
100185.48
100203.27
100840
101188.31
100955.82
101106.12
101001.73
101060.31
101017.04
101031.76
101013.49
101010.18
100998.02
100987.46
100973.72
100959.33
100944.37
100928.9
100910.69
100888.49
100861.01
100826.82
100784.92
100733.25
100674.03
100600.41
100531.23
100427.37
100379.61
100220.09
100243.27
100831.07
101188.14
100949.75
101106.66
100997.4
101061.36
101014.59
101032.95
101012.89
101011.54
100998.9
100989.25
100975.74
100962.24
100948.03
100933.03
100914.93
100892.72
100865.19
100831.06
100789.58
100738.71
100681.19
100609.66
100544.24
100444.03
100402.38
100248.03
100278.4
100821.76
101189.32
100943.04
101108.58
100992.61
101063.74
101011.81
101035.35
101012.18
101013.9
101000
100991.89
100978.35
100965.99
100952.27
100937.3
100918.38
100894.8
100865.48
100829.44
100786.51
100734.71
100677.95
100607.78
100546.86
100450.52
100416.61
100267.6
100306.14
100816.15
101192.6
100937.73
101111.37
100988.5
101066.71
101009.14
101038.33
101011.13
101016.67
101000.44
100994.14
100979.44
100968.31
100956.14
100945
100931.32
100914.5
100892.89
100865.03
100830.72
100786.9
100738.59
100674.31
100620.81
100526.16
100495.89
100346.03
100387.08
100813.12
101193.39
100935.81
101112.48
100987.33
101067.88
101008.49
101039.41
101011.03
101017.65
101000.86
100995.26
100980.58
100969.9
100957.33
100945.27
100930.25
100912.11
100889.3
100860.41
100825.33
100780.67
100731.96
100666.61
100613.19
100517.05
100487.78
100337.97
100382.93
100811.17
101193.71
100934.61
101112.99
100986.66
101068.51
101008.23
101040.08
101011.18
101018.36
101001.37
100996.14
100981.52
100971.17
100958.46
100945.92
100930.02
100910.87
100887.01
100857.12
100821.21
100775.71
100726.53
100660.37
100606.91
100509.91
100481.06
100330.74
100376.14
100809.88
101193.92
100933.74
101113.27
100986.17
101068.92
101008.1
101040.59
101011.39
101018.98
101001.86
100996.89
100982.28
100972.24
100959.62
100947.07
100930.92
100911.38
100887.05
100856.65
100820.32
100774.42
100725.12
100658.75
100605.58
100508.7
100480.25
100330.2
100375.23
100808.93
101194.04
100933.1
101113.44
100985.85
101069.23
101008.06
101041.02
101011.63
101019.55
101002.35
100997.59
100983.01
100973.25
100960.78
100948.38
100932.26
100912.67
100888.21
100857.65
100821.24
100775.28
100726.18
100660.03
100607.41
100511.38
100483.4
100334.76
100379.71
100808.26
101194.04
100932.68
101113.52
100985.67
101069.47
101008.11
101041.41
101011.9
101020.08
101002.83
100998.28
100983.74
100974.27
100961.94
100949.72
100933.7
100914.2
100889.79
100859.28
100823
100777.21
100728.5
100662.9
100611
100516.38
100488.89
100342.76
100387.8
100807.84
101193.92
100932.45
101113.51
100985.63
101069.63
101008.23
101041.75
101012.21
101020.59
101003.33
100998.97
100984.5
100975.32
100963.14
100951.1
100935.2
100915.83
100891.56
100861.21
100825.18
100779.72
100731.57
100666.77
100615.73
100523.07
100496.08
100353.52
100398.64
100807.64
101193.72
100932.35
101113.44
100985.67
101069.75
101008.4
101042.07
101012.54
101021.1
101003.84
100999.67
100985.29
100976.41
100964.4
100952.55
100936.78
100917.57
100893.48
100863.36
100827.67
100782.68
100735.22
100671.51
100621.46
100531.35
100504.92
100366.96
100412.24
100807.63
101193.47
100932.36
101113.34
100985.76
101069.86
101008.61
101042.38
101012.89
101021.61
101004.37
101000.39
100986.13
100977.58
100965.75
100954.1
100938.48
100919.45
100895.57
100865.73
100830.47
100786.09
100739.46
100677.14
100628.27
100541.32
100515.6
100383.2
100428.92
100807.76
101193.21
100932.43
101113.24
100985.9
101069.96
101008.84
101042.7
101013.26
101022.14
101004.92
101001.14
100987.02
100978.82
100967.19
100955.76
100940.32
100921.49
100897.86
100868.38
100833.63
100790.01
100744.36
100683.76
100636.28
100553.08
100528.35
100402.31
100449.01
100808.01
101192.96
100932.54
101113.15
100986.04
101070.08
101009.08
101043.04
101013.64
101022.7
101005.5
101001.94
100987.97
100980.16
100968.74
100957.56
100942.31
100923.73
100900.4
100871.34
100837.19
100794.49
100750.01
100691.41
100645.59
100566.67
100543.36
100424.25
100472.64
100808.31
101192.75
100932.66
101113.1
100986.18
101070.23
101009.31
101043.42
101014.03
101023.29
101006.11
101002.79
100989
100981.59
100970.41
100959.5
100944.47
100926.17
100903.19
100874.63
100841.2
100799.57
100756.43
100700.12
100656.28
100582
100560.68
100448.86
100499.73
100808.64
101192.6
100932.77
101113.1
100986.3
101070.43
101009.54
101043.83
101014.43
101023.92
101006.74
101003.69
100990.09
100983.12
100972.18
100961.58
100946.8
100928.82
100906.25
100878.27
100845.66
100805.23
100763.63
100709.81
100668.28
100598.84
100580.13
100475.8
100529.91
100808.95
101192.53
100932.85
101113.14
100986.4
101070.66
101009.76
101044.27
101014.84
101024.59
101007.39
101004.65
100991.25
100984.73
100974.06
100963.78
100949.28
100931.65