/*--------------------------------*- C++ -*----------------------------------*\
| =========                 |                                                 |
| \\      /  F ield         | OpenFOAM: The Open Source CFD Toolbox           |
|  \\    /   O peration     | Version:  2206                                  |
|   \\  /    A nd           | Website:  www.openfoam.com                      |
|    \\/     M anipulation  |                                                 |
\*---------------------------------------------------------------------------*/
FoamFile
{
    version     2.0;
    format      ascii;
    arch        "LSB;label=32;scalar=64";
    class       volScalarField;
    location    "0";
    object      TMean;
}
// * * * * * * * * * * * * * * * * * * * * * * * * * * * * * * * * * * * * * //

dimensions      [0 0 0 1 0 0 0];

internalField   nonuniform List<scalar> 
19794
(
292.97867
292.9773
292.97848
292.98085
292.98342
292.98622
292.98884
292.99118
292.99311
292.99465
292.99592
292.997
292.99794
292.99871
292.99933
292.9998
293.00016
293.00042
293.0006
293.00072
293.0008
293.00086
293.00092
293.001
293.00109
293.00123
293.00143
293.00173
293.00211
293.00257
293.00313
293.00381
293.00462
293.00557
293.00666
293.00791
293.00931
293.01089
293.01262
293.01454
293.0167
293.0191
293.02176
293.02466
293.02773
293.03041
293.03234
293.03382
293.02995
292.97731
292.97517
292.97316
292.97403
292.97503
292.97689
292.97876
292.98073
292.98278
292.9848
292.98669
292.98841
292.98997
292.99139
292.99269
292.99391
292.99505
292.9961
292.99708
292.998
292.99887
292.99969
293.00047
293.00121
293.00193
293.00266
293.00338
293.00419
293.00498
293.00574
293.00649
293.00726
293.00804
293.00882
293.00961
293.01042
293.01124
293.01212
293.01312
293.01423
293.01549
293.0168
293.01802
293.01913
293.02057
293.02151
293.02261
293.01844
293.01569
292.95186
292.9535
292.95723
292.96145
292.96412
292.96685
292.96942
292.97205
292.97456
292.97699
292.97923
292.98134
292.98335
292.9853
292.98719
292.98902
292.99078
292.99247
292.99411
292.9957
292.99725
292.99872
293.00013
293.00149
293.00279
293.00405
293.00528
293.00656
293.00777
293.00882
293.0098
293.01072
293.0116
293.01243
293.01324
293.01405
293.01494
293.01595
293.01717
293.01868
293.02066
293.02326
293.02664
293.03052
293.03469
293.03888
293.04523
293.04931
293.05275
292.93712
292.93766
292.94172
292.94733
292.95172
292.95632
292.96039
292.96419
292.96761
292.97078
292.97366
292.97634
292.97886
292.98126
292.9836
292.98588
292.98811
292.99028
292.99242
292.9945
292.9965
292.99844
293.00034
293.00217
293.00395
293.00567
293.00734
293.00909
293.01073
293.01217
293.01353
293.01479
293.016
293.01716
293.0183
293.01948
293.02078
293.02229
293.02419
293.02665
293.02983
293.03396
293.03923
293.04545
293.0528
293.05967
293.06845
293.07161
293.07306
292.92156
292.92368
292.92978
292.93606
292.94132
292.94698
292.95199
292.95668
292.96092
292.96481
292.96837
292.97169
292.9748
292.97778
292.98064
292.98341
292.9861
292.98873
292.99131
292.99381
292.99624
292.9986
293.00089
293.00311
293.00528
293.00738
293.00945
293.01161
293.01367
293.0155
293.01722
293.01888
293.02048
293.02204
293.02359
293.02521
293.02697
293.029
293.03147
293.03455
293.03845
293.04338
293.04958
293.05678
293.06527
293.073
293.08305
293.08882
293.09402
292.90619
292.90982
292.91858
292.92568
292.93205
292.93846
292.94414
292.94952
292.95443
292.95896
292.96314
292.96708
292.9708
292.97437
292.97779
292.98111
292.98432
292.98744
292.99047
292.99343
292.99629
292.99907
293.00176
293.00437
293.00691
293.00939
293.01183
293.0144
293.01685
293.01904
293.02112
293.02313
293.02509
293.027
293.02893
293.03093
293.03308
293.03551
293.03839
293.04192
293.04629
293.05169
293.05839
293.06625
293.07601
293.08535
293.09732
293.1068
293.11604
292.89198
292.89683
292.90764
292.91549
292.92305
292.93028
292.9367
292.94271
292.94821
292.95336
292.95818
292.96275
292.96709
292.97125
292.97525
292.97911
292.98285
292.98647
292.98999
292.9934
292.9967
292.99991
293.00303
293.00606
293.009
293.01188
293.01473
293.01772
293.02056
293.02313
293.02559
293.02797
293.03029
293.03258
293.03487
293.03723
293.03975
293.04252
293.04575
293.04965
293.05445
293.06039
293.06782
293.07661
293.08753
293.09836
293.1122
293.12458
293.1363
292.87833
292.88456
292.897
292.9056
292.91434
292.92224
292.92941
292.93616
292.94233
292.94815
292.95361
292.9588
292.96376
292.96852
292.97311
292.97755
292.98183
292.98597
292.98997
292.99385
292.99761
293.00125
293.00478
293.00822
293.01158
293.01488
293.01816
293.02158
293.02485
293.02783
293.03067
293.03341
293.03609
293.03873
293.04139
293.04412
293.04703
293.05024
293.05393
293.05831
293.06363
293.07016
293.07819
293.08755
293.09941
293.11151
293.12641
293.14082
293.15476
292.86472
292.87248
292.88643
292.89581
292.9057
292.91433
292.92234
292.92977
292.93667
292.94318
292.94932
292.95518
292.96079
292.96618
292.97138
292.97639
292.98124
292.98591
292.99044
292.9948
292.99903
293.00313
293.00711
293.01097
293.01476
293.01847
293.02218
293.02604
293.02973
293.03312
293.03637
293.03951
293.0426
293.04566
293.04874
293.05191
293.05526
293.05891
293.06305
293.06787
293.07361
293.08049
293.08898
293.09887
293.11116
293.12413
293.1398
293.15557
293.17161
292.85104
292.86007
292.87565
292.88585
292.89697
292.90638
292.91528
292.92353
292.9312
292.93846
292.94532
292.95187
292.95816
292.96421
292.97004
292.97565
292.98107
292.9863
292.99135
292.99622
293.00094
293.00553
293.00997
293.0143
293.01853
293.02269
293.02684
293.03115
293.03529
293.03912
293.04279
293.04636
293.04988
293.05337
293.05687
293.06046
293.06423
293.0683
293.07283
293.07803
293.08414
293.09136
293.10015
293.11034
293.12292
293.13645
293.15268
293.16945
293.18717
292.83708
292.84709
292.8644
292.87551
292.88798
292.89823
292.90818
292.91729
292.92583
292.9339
292.94155
292.94885
292.95586
292.96259
292.96905
292.97528
292.98128
292.98707
292.99266
292.99806
293.00329
293.00837
293.01331
293.01811
293.02279
293.0274
293.03203
293.03681
293.04143
293.04572
293.04983
293.05383
293.05776
293.06167
293.0656
293.06961
293.07379
293.07828
293.08322
293.08879
293.09523
293.10272
293.11173
293.12217
293.13491
293.14888
293.16549
293.18261
293.20173
292.8226
292.83347
292.85254
292.86461
292.87852
292.8898
292.90091
292.91097
292.92049
292.92945
292.93796
292.94608
292.95384
292.96126
292.96838
292.97523
292.98184
292.98821
292.99435
293.00031
293.00604
293.01163
293.01706
293.02234
293.0275
293.03258
293.03768
293.04293
293.04803
293.05277
293.05732
293.06176
293.06613
293.07047
293.07483
293.07928
293.08389
293.08879
293.09412
293.10007
293.10686
293.11469
293.12393
293.13461
293.14741
293.16152
293.17841
293.19535
293.21554
292.80736
292.81912
292.83998
292.85313
292.86851
292.88093
292.89331
292.90447
292.91507
292.92502
292.93444
292.9434
292.95193
292.96008
292.96791
292.97543
292.98266
292.98962
292.99636
293.00285
293.00911
293.0152
293.02112
293.0269
293.03255
293.03813
293.04371
293.04943
293.05501
293.06022
293.06523
293.07012
293.07493
293.07972
293.08454
293.08945
293.09453
293.0999
293.1057
293.1121
293.11927
293.12738
293.13681
293.14763
293.16047
293.17453
293.19149
293.20812
293.2288
292.79125
292.804
292.82671
292.84105
292.85797
292.87168
292.8854
292.89774
292.90948
292.92046
292.93086
292.94071
292.95009
292.95903
292.9676
292.97581
292.9837
292.99129
292.9986
293.00565
293.01248
293.01909
293.02553
293.0318
293.03795
293.04404
293.05013
293.05633
293.06241
293.06813
293.07364
293.07901
293.08432
293.0896
293.0949
293.1003
293.10586
293.1117
293.11795
293.12474
293.13227
293.14072
293.15037
293.16127
293.17407
293.18799
293.20506
293.22125
293.24189
292.77423
292.78822
292.81284
292.82849
292.84698
292.86205
292.87713
292.89071
292.90364
292.91571
292.92714
292.93794
292.94821
292.958
292.96735
292.9763
292.98487
292.99312
293.00105
293.00871
293.01612
293.02331
293.03029
293.0371
293.04378
293.05039
293.05699
293.06371
293.07031
293.07654
293.08256
293.08843
293.09423
293.1
293.10581
293.11171
293.11778
293.1241
293.13081
293.13805
293.14598
293.15475
293.16465
293.1757
293.18848
293.20234
293.21921
293.23491
293.25504
292.75646
292.77192
292.79845
292.81556
292.83562
292.85212
292.86857
292.88343
292.89758
292.91079
292.92329
292.9351
292.9463
292.95697
292.96714
292.97685
292.98616
292.99509
293.00369
293.01198
293.02001
293.02779
293.03535
293.04273
293.04998
293.05713
293.0643
293.07154
293.07868
293.08546
293.09201
293.09842
293.10474
293.11105
293.11738
293.12382
293.13042
293.13727
293.14448
293.15219
293.16054
293.16968
293.17987
293.1911
293.20386
293.21743
293.23399
293.2492
293.26846
292.73803
292.7552
292.78358
292.80235
292.82394
292.84196
292.85978
292.87598
292.89138
292.90576
292.91935
292.9322
292.94438
292.95595
292.96698
292.97751
292.9876
292.99727
293.00658
293.01555
293.02424
293.03265
293.04083
293.04882
293.05666
293.06439
293.07215
293.07996
293.08768
293.09504
293.10217
293.10914
293.11603
293.12289
293.1298
293.1368
293.14396
293.15138
293.15913
293.16735
293.17615
293.18566
293.19606
293.20739
293.22009
293.23345
293.24951
293.26415
293.28237
292.71892
292.738
292.76824
292.78883
292.81195
292.83157
292.8508
292.86839
292.88505
292.90065
292.91539
292.92931
292.94251
292.95504
292.96698
292.97838
292.98929
292.99974
293.00979
293.01949
293.02888
293.03797
293.04682
293.05546
293.06393
293.07232
293.0807
293.08912
293.09748
293.10546
293.11321
293.1208
293.1283
293.13577
293.14328
293.15088
293.15863
293.16661
293.1749
293.18358
293.19279
293.20263
293.21326
293.22469
293.2373
293.2504
293.26587
293.2799
293.29703
292.69869
292.72008
292.75225
292.77487
292.79956
292.82092
292.84161
292.86067
292.87867
292.89554
292.91147
292.92652
292.94079
292.95434
292.96724
292.97956
292.99134
293.00265
293.01352
293.02401
293.03415
293.04399
293.05354
293.06288
293.07207
293.08115
293.09019
293.09928
293.10832
293.11698
293.12538
293.13361
293.14175
293.14984
293.15796
293.16615
293.17449
293.18303
293.19184
293.20101
293.21063
293.2208
293.23162
293.24311
293.25557
293.26839
293.28326
293.29662
293.31268
292.67553
292.70055
292.73512
292.76014
292.78657
292.80982
292.8321
292.85273
292.87219
292.89045
292.90769
292.92398
292.93941
292.95406
292.968
292.98131
292.99404
293.00626
293.01802
293.02936
293.04032
293.05094
293.06129
293.0714
293.08133
293.09115
293.1009
293.11069
293.12043
293.12978
293.13887
293.14778
293.15657
293.16533
293.17408
293.1829
293.19183
293.20094
293.21028
293.21992
293.22993
293.24037
293.25134
293.26285
293.27513
293.28768
293.30196
293.31468
293.32973
292.64322
292.67604
292.71497
292.74345
292.77219
292.79777
292.82194
292.84438
292.86545
292.88521
292.90384
292.92145
292.93813
292.95397
292.96907
292.98348
292.99729
293.01053
293.02326
293.03555
293.0474
293.05891
293.07011
293.08107
293.09181
293.10242
293.11296
293.1235
293.13401
293.14412
293.15395
293.16359
293.17308
293.18252
293.19193
293.20139
293.21092
293.22058
293.23043
293.2405
293.25086
293.26157
293.27268
293.2842
293.29632
293.30861
293.32232
293.33447
293.34863
292.59223
292.63729
292.68507
292.72083
292.75387
292.78302
292.80991
292.83478
292.85798
292.87974
292.90018
292.91945
292.93766
292.95492
292.97133
292.98698
293.00194
293.01629
293.03009
293.04339
293.05626
293.06876
293.08091
293.09278
293.10442
293.11589
293.12727
293.13862
293.14991
293.1608
293.1714
293.18178
293.192
293.20213
293.2122
293.22228
293.23239
293.24259
293.25291
293.2634
293.2741
293.28507
293.29635
293.30794
293.31995
293.33206
293.34534
293.35696
293.37053
292.53684
292.58345
292.63511
292.68045
292.72178
292.7584
292.79095
292.82017
292.84682
292.87137
292.89416
292.91553
292.93565
292.95468
292.97274
292.98994
293.00638
293.02213
293.03726
293.05182
293.0659
293.07954
293.09281
293.10575
293.11842
293.13089
293.14321
293.15548
293.16765
293.17943
293.19089
293.20213
293.21317
293.22408
293.2349
293.2457
293.25649
293.26733
293.27824
293.28926
293.30041
293.3117
293.32317
293.33482
293.34672
293.3587
293.37182
293.38358
293.39827
292.50065
292.54112
292.58645
292.63078
292.67403
292.71543
292.75435
292.79038
292.82343
292.85366
292.88145
292.90705
292.93072
292.95277
292.97346
292.993
293.01156
293.02925
293.04617
293.06242
293.07808
293.09322
293.1079
293.12216
293.13607
293.14971
293.16315
293.17646
293.18962
293.20239
293.21481
293.22697
293.23889
293.25062
293.26222
293.27372
293.28515
293.29657
293.308
293.31951
293.33116
293.34302
293.3552
293.36785
293.38119
293.39543
293.41151
293.42755
293.44715
292.48594
292.52139
292.56062
292.60037
292.64015
292.67939
292.7176
292.75441
292.78963
292.82313
292.85481
292.8847
292.91285
292.93936
292.96434
292.98788
293.01008
293.03109
293.05104
293.07006
293.08825
293.10572
293.12256
293.13881
293.15458
293.16995
293.18501
293.19983
293.21442
293.22866
293.24254
293.25617
293.26958
293.28286
293.29604
293.3092
293.32241
293.33576
293.34932
293.36316
293.37737
293.39205
293.40729
293.42317
293.43966
293.45656
293.47361
293.4894
293.50473
292.487
292.51994
292.55589
292.59281
292.63018
292.66749
292.70429
292.74029
292.77527
292.80911
292.84173
292.87308
292.90316
292.932
292.95962
292.98605
293.01137
293.03565
293.05894
293.08131
293.10284
293.12357
293.1436
293.16302
293.18193
293.20037
293.21841
293.23612
293.25353
293.27058
293.28726
293.30362
293.31974
293.33565
293.35142
293.36707
293.38264
293.39815
293.4136
293.429
293.44432
293.4595
293.47444
293.489
293.50301
293.51622
293.52827
293.53854
293.54684
292.49786
292.53025
292.56501
292.60077
292.63712
292.67361
292.70989
292.74565
292.78073
292.81498
292.84831
292.88068
292.91204
292.9424
292.97175
293.00012
293.02754
293.05403
293.07964
293.10441
293.12841
293.15168
293.1743
293.1963
293.21774
293.23865
293.25907
293.27905
293.2986
293.31769
293.33632
293.3545
293.37224
293.38958
293.40652
293.42306
293.4392
293.45492
293.47019
293.48496
293.49916
293.51271
293.52548
293.53732
293.54802
293.55736
293.56502
293.57053
293.57358
292.51292
292.54657
292.58192
292.61798
292.65445
292.69095
292.72717
292.76292
292.79803
292.83239
292.86594
292.89863
292.93044
292.96137
292.99142
293.0206
293.04895
293.0765
293.10327
293.12929
293.15461
293.17925
293.20323
293.22659
293.24935
293.27156
293.29322
293.31437
293.33502
293.35515
293.37476
293.39382
293.41235
293.43033
293.44776
293.4646
293.48084
293.49642
293.51129
293.52538
293.53858
293.55078
293.56184
293.57159
293.57981
293.58625
293.59061
293.5925
293.59142
292.52343
292.55965
292.59782
292.63676
292.67603
292.71522
292.75402
292.7922
292.82961
292.86615
292.90175
292.93638
292.97002
293.00268
293.03438
293.06511
293.09491
293.12382
293.15185
293.17904
293.20543
293.23102
293.25587
293.27998
293.30339
293.32611
293.34815
293.36954
293.39027
293.41035
293.42976
293.44846
293.46644
293.48369
293.50017
293.51585
293.53066
293.54455
293.55744
293.56923
293.57981
293.58902
293.59672
293.60268
293.60667
293.60839
293.60753
293.60373
293.59637
292.96999
292.97512
292.94171
292.93287
292.91259
292.89715
292.88206
292.86757
292.85316
292.83857
292.82365
292.80817
292.79189
292.77462
292.75636
292.73728
292.71748
292.69683
292.67454
292.64741
292.6074
292.55268
292.50339
292.47387
292.46289
292.46516
292.47549
292.48801
292.4949
292.96164
292.96977
292.93424
292.92818
292.90575
292.89153
292.87587
292.86118
292.84648
292.83155
292.81626
292.80035
292.78357
292.76572
292.74684
292.72706
292.70645
292.68478
292.66075
292.62986
292.58414
292.52795
292.48257
292.457
292.44823
292.45095
292.46029
292.47016
292.47272
292.95341
292.96293
292.92726
292.92291
292.89896
292.88602
292.86959
292.8548
292.83974
292.82448
292.80879
292.79243
292.77513
292.75671
292.73719
292.71669
292.69526
292.67246
292.64633
292.61107
292.56034
292.50472
292.46379
292.44179
292.43487
292.43787
292.44621
292.45376
292.45279
292.94715
292.95701
292.92122
292.91795
292.8929
292.88101
292.86365
292.84886
292.83341
292.81778
292.8017
292.78488
292.76706
292.74806
292.72789
292.70668
292.6844
292.66035
292.63172
292.59174
292.53734
292.48383
292.44728
292.42836
292.42297
292.42612
292.43356
292.43921
292.43577
292.94179
292.9516
292.91559
292.91323
292.88732
292.87628
292.85801
292.8433
292.82743
292.81149
292.79502
292.77776
292.75944
292.73987
292.71907
292.69716
292.674
292.64853
292.61697
292.57226
292.51581
292.46543
292.43292
292.41665
292.41252
292.41576
292.42245
292.42673
292.42205
292.93683
292.94645
292.91017
292.9086
292.88199
292.87167
292.85257
292.83801
292.82171
292.8055
292.78866
292.77098
292.75216
292.73204
292.71065
292.68804
292.66396
292.63687
292.602
292.55293
292.49603
292.44936
292.4205
292.40654
292.40346
292.40679
292.41295
292.41643
292.41175
292.9322
292.94151
292.90498
292.90407
292.87689
292.8672
292.84733
292.83294
292.81621
292.79978
292.78257
292.76448
292.74519
292.72454
292.70255
292.67926
292.65421
292.62526
292.58679
292.53413
292.47817
292.43541
292.40982
292.39788
292.39574
292.39922
292.4051
292.40835
292.40473
292.92794
292.93684
292.90005
292.89968
292.87201
292.86287
292.8423
292.82809
292.81093
292.7943
292.77674
292.75825
292.73849
292.71734
292.69478
292.67079
292.64469
292.61363
292.57141
292.51621
292.46228
292.42341
292.40074
292.3906
292.38932
292.39303
292.39889
292.40246
292.40104
292.92406
292.93245
292.89537
292.89545
292.86735
292.85869
292.83748
292.82345
292.80587
292.78906
292.77114
292.75228
292.73208
292.71042
292.68731
292.66262
292.63535
292.60191
292.55604
292.49949
292.44833
292.41315
292.39312
292.38461
292.38415
292.38822
292.39436
292.39877
292.40033
292.92048
292.92828
292.89091
292.89135
292.8629
292.85464
292.83285
292.819
292.801
292.78404
292.76577
292.74654
292.72591
292.70378
292.68013
292.65472
292.62615
292.5901
292.5409
292.48416
292.43622
292.40451
292.38686
292.37985
292.38022
292.38477
292.39147
292.39714
292.40234
292.91715
292.92431
292.88666
292.88738
292.85861
292.85072
292.82841
292.81472
292.79633
292.77922
292.76061
292.74103
292.71998
292.6974
292.67322
292.64706
292.61704
292.5782
292.52623
292.47034
292.42586
292.39732
292.38187
292.37626
292.37749
292.38264
292.39016
292.39746
292.40669
292.91404
292.92052
292.88259
292.88352
292.85449
292.84691
292.82413
292.8106
292.79183
292.77459
292.75564
292.73573
292.71429
292.69127
292.66657
292.6396
292.60797
292.56627
292.51226
292.45806
292.41712
292.39147
292.37806
292.3738
292.3759
292.38179
292.39037
292.39958
292.41307
292.91113
292.91688
292.87868
292.87978
292.85051
292.84323
292.82001
292.80663
292.78749
292.77013
292.75086
292.73063
292.70881
292.68538
292.66016
292.63232
292.59891
292.55441
292.4992
292.44733
292.40986
292.38689
292.37538
292.37241
292.37544
292.38219
292.39204
292.40335
292.42117
292.90839
292.9134
292.87493
292.87614
292.84667
292.83965
292.81604
292.8028
292.78331
292.76584
292.74625
292.72573
292.70355
292.67972
292.65397
292.62518
292.58985
292.54274
292.48719
292.4381
292.40397
292.38347
292.37377
292.37206
292.37606
292.38379
292.39507
292.40862
292.43073
292.90579
292.91005
292.87132
292.8726
292.84295
292.83617
292.81222
292.7991
292.77928
292.7617
292.7418
292.72101
292.69849
292.67427
292.64798
292.61816
292.58079
292.53141
292.47634
292.43032
292.39932
292.38115
292.37317
292.37269
292.37772
292.38653
292.39939
292.41525
292.44153
292.90333
292.90682
292.86783
292.86916
292.83936
292.8328
292.80852
292.79552
292.77538
292.75771
292.73751
292.71646
292.69362
292.66904
292.64218
292.61123
292.57175
292.52056
292.46671
292.42391
292.39584
292.37987
292.37353
292.37428
292.38039
292.39039
292.40493
292.42313
292.45339
292.90098
292.9037
292.86446
292.86581
292.83587
292.82951
292.80494
292.79206
292.77161
292.75386
292.73338
292.71209
292.68894
292.66401
292.63655
292.60436
292.56278
292.51035
292.45832
292.4188
292.39345
292.37958
292.3748
292.37678
292.38404
292.39529
292.41162
292.43215
292.46616
292.89873
292.90069
292.86119
292.86254
292.83248
292.82633
292.80148
292.78871
292.76797
292.75014
292.7294
292.70788
292.68445
292.65917
292.63107
292.59755
292.55394
292.5009
292.45116
292.41486
292.39208
292.38021
292.37695
292.38016
292.38861
292.40121
292.41939
292.44222
292.47975
292.89657
292.89779
292.85803
292.85935
292.82919
292.82322
292.79812
292.78546
292.76445
292.74656
292.72556
292.70385
292.68015
292.65451
292.62573
292.5908
292.54533
292.49232
292.44522
292.41203
292.39169
292.38172
292.37994
292.3844
292.39408
292.4081
292.42818
292.45329
292.4941
292.89449
292.89497
292.85496
292.85624
292.82598
292.8202
292.79487
292.78232
292.76104
292.7431
292.72186
292.69997
292.67603
292.65004
292.62051
292.58409
292.53703
292.48468
292.44047
292.41025
292.39222
292.38407
292.38373
292.38945
292.40043
292.41591
292.43794
292.46528
292.50916
292.89248
292.89224
292.85198
292.85321
292.82285
292.81726
292.79171
292.77928
292.75775
292.73976
292.71831
292.69627
292.67209
292.64572
292.6154
292.57747
292.52916
292.47803
292.43685
292.40943
292.39363
292.38722
292.3883
292.39529
292.4076
292.42461
292.44861
292.47816
292.52492
292.89054
292.8896
292.84908
292.85024
292.81981
292.8144
292.78865
292.77634
292.75457
292.73656
292.71491
292.69273
292.66832
292.64158
292.61038
292.57095
292.52181
292.47241
292.43431
292.40956
292.39588
292.39114
292.39361
292.4019
292.41558
292.43416
292.46018
292.4919
292.54136
292.88865
292.88704
292.84626
292.84736
292.81683
292.81161
292.78568
292.77349
292.7515
292.73348
292.71165
292.68935
292.66473
292.63758
292.60546
292.56458
292.51508
292.46781
292.4328
292.41059
292.39892
292.39581
292.39966
292.40924
292.42433
292.44453
292.47257
292.50646
292.55847
292.88681
292.88457
292.84351
292.84455
292.81393
292.8089
292.7828
292.77075
292.74854
292.73054
292.70855
292.68615
292.66132
292.63373
292.60062
292.55843
292.50908
292.46427
292.43225
292.41245
292.40273
292.40119
292.40641
292.4173
292.43384
292.45567
292.48577
292.52182
292.57622
292.88501
292.88217
292.84084
292.84181
292.8111
292.80627
292.78001
292.76811
292.7457
292.72773
292.7056
292.68313
292.65809
292.63002
292.59589
292.55257
292.50386
292.46177
292.43262
292.41515
292.40728
292.40726
292.41384
292.42606
292.44406
292.46757
292.49974
292.53795
292.59471
292.88326
292.87985
292.83825
292.83915
292.80833
292.80372
292.77731
292.76557
292.74298
292.72507
292.70281
292.68028
292.65504
292.62646
292.59127
292.54707
292.49949
292.46026
292.43389
292.41863
292.41254
292.41402
292.42194
292.4355
292.455
292.48019
292.51444
292.55481
292.61388
292.88154
292.8776
292.83573
292.83656
292.80564
292.80125
292.77471
292.76315
292.74039
292.72255
292.7002
292.67763
292.65216
292.62302
292.5868
292.54202
292.49601
292.45976
292.43602
292.42288
292.41851
292.42143
292.43068
292.4456
292.4666
292.49351
292.52982
292.57237
292.63377
292.87985
292.87544
292.83328
292.83406
292.80302
292.79887
292.77221
292.76085
292.73793
292.7202
292.69777
292.67517
292.64947
292.61973
292.5825
292.53752
292.49347
292.4602
292.43898
292.42787
292.42516
292.4295
292.44007
292.45634
292.47886
292.50748
292.54585
292.59053
292.65449
292.87819
292.87336
292.83092
292.83164
292.80047
292.79659
292.76981
292.75869
292.73562
292.71804
292.69553
292.67291
292.64695
292.61658
292.57844
292.53366
292.49191
292.46158
292.44277
292.4336
292.43248
292.4382
292.45009
292.46771
292.49175
292.52208
292.56248
292.60931
292.67601
292.87655
292.87136
292.82863
292.82933
292.79801
292.79443
292.76753
292.75668
292.73347
292.71606
292.6935
292.67088
292.64464
292.61359
292.57466
292.53052
292.49132
292.46386
292.44736
292.44005
292.44046
292.44754
292.46072
292.47969
292.50526
292.53728
292.57964
292.62865
292.69827
292.87493
292.86947
292.82644
292.82713
292.79563
292.79238
292.76537
292.75483
292.73151
292.7143
292.6917
292.66908
292.64252
292.61078
292.57126
292.52817
292.49174
292.46702
292.45274
292.44722
292.44911
292.45751
292.47197
292.49228
292.51936
292.55303
292.59732
292.64848
292.72114
292.87332
292.86768
292.82434
292.82505
292.79335
292.79048
292.76336
292.75318
292.72974
292.71278
292.69015
292.66753
292.64061
292.60819
292.56832
292.52671
292.49317
292.47107
292.45892
292.45509
292.45842
292.4681
292.48383
292.50547
292.53404
292.56932
292.61545
292.66876
292.74442
292.87174
292.86601
292.82236
292.82313
292.79118
292.78875
292.76152
292.75175
292.7282
292.71154
292.68887
292.66624
292.63893
292.60584
292.56593
292.52619
292.49561
292.47601
292.46589
292.46369
292.4684
292.47933
292.49631
292.51924
292.54927
292.5861
292.63399
292.68941
292.76791
292.87017
292.86449
292.8205
292.8214
292.78916
292.78722
292.75987
292.75058
292.72691
292.71061
292.68788
292.66525
292.63748
292.60382
292.56421
292.52669
292.49906
292.48185
292.47366
292.47302
292.47906
292.4912
292.50939
292.5336
292.56504
292.60334
292.6529
292.71035
292.79149
292.8686
292.86314
292.81877
292.8199
292.78728
292.78595
292.75844
292.74972
292.7259
292.71003
292.68721
292.66457
292.63631
292.60218
292.56329
292.52827
292.50349
292.4886
292.48224
292.48308
292.49039
292.50371
292.52308
292.54852
292.5813
292.62098
292.67211
292.73145
292.815
292.86706
292.86205
292.81721
292.81874
292.7856
292.78503
292.7573
292.74929
292.72523
292.70989
292.68689
292.66425
292.63545
292.60102
292.56325
292.53102
292.50896
292.49628
292.49164
292.49389
292.50242
292.51686
292.53735
292.56395
292.598
292.63897
292.69156
292.75263
292.83835
292.86544
292.8612
292.81577
292.81787
292.78407
292.78439
292.75632
292.74914
292.72478
292.71007
292.68682
292.66424
292.63488
292.60046
292.56426
292.535
292.51555
292.50498
292.50198
292.50556
292.51525
292.53078
292.55236
292.58007
292.61533
292.65752
292.7115
292.77427
292.86204
292.86402
292.8613
292.81444
292.81797
292.78275
292.78478
292.75589
292.75022
292.72512
292.71153
292.68764
292.66529
292.63516
292.60108
292.56681
292.5406
292.52365
292.51506
292.51365
292.51854
292.52939
292.546
292.56868
292.59749
292.6339
292.67735
292.73266
292.79727
292.88732
292.86376
292.86181
292.81478
292.81877
292.78294
292.78576
292.75663
292.75167
292.72632
292.71329
292.68907
292.66668
292.6361
292.60279
292.57086
292.54748
292.53286
292.52614
292.52619
292.5323
292.54419
292.56173
292.58525
292.61487
292.65182
292.69593
292.75115
292.81614
292.90442
292.86431
292.8616
292.8157
292.81885
292.78357
292.78632
292.75755
292.7529
292.72756
292.7148
292.69037
292.66791
292.63706
292.6043
292.57399
292.55233
292.53906
292.53334
292.53411
292.54077
292.55308
292.57101
292.59482
292.62481
292.66197
292.70664
292.76182
292.82773
292.91419
292.86465
292.86083
292.81664
292.81834
292.78432
292.78605
292.75826
292.75296
292.72822
292.71508
292.69089
292.66817
292.63736
292.60485
292.57527
292.55428
292.54155
292.53621
292.53725
292.5441
292.55655
292.57458
292.59847
292.62853
292.66569
292.71047
292.76556
292.8317
292.91792
292.86509
292.86013
292.81763
292.81784
292.78514
292.78582
292.75902
292.75306
292.72892
292.7154
292.69145
292.66846
292.6377
292.60543
292.57654
292.55617
292.54393
292.53897
292.54028
292.54735
292.55997
292.57817
292.60218
292.6324
292.66964
292.71465
292.76977
292.83631
292.92239
292.86553
292.85951
292.8186
292.81739
292.78593
292.78562
292.75975
292.75316
292.72959
292.71572
292.69197
292.66873
292.63802
292.60599
292.57775
292.55797
292.54622
292.54164
292.54325
292.55056
292.5634
292.58181
292.60601
292.63647
292.67389
292.71924
292.77454
292.84164
292.92772
292.86595
292.85894
292.81952
292.81698
292.78669
292.78544
292.76043
292.75327
292.7302
292.716
292.69244
292.66896
292.6383
292.60651
292.57893
292.55973
292.54849
292.5443
292.54623
292.55384
292.56695
292.58564
292.61011
292.6409
292.67861
292.7244
292.78005
292.84786
292.93418
292.86634
292.85841
292.82039
292.81659
292.78741
292.78528
292.76105
292.75337
292.73075
292.71627
292.69285
292.66916
292.63854
292.60703
292.58011
292.56152
292.5508
292.54705
292.54936
292.55731
292.57076
292.58981
292.61464
292.64584
292.68397
292.73034
292.78653
292.85524
292.94208
292.8667
292.85793
292.82122
292.81624
292.78809
292.78515
292.76164
292.75348
292.73128
292.71653
292.69323
292.66933
292.63875
292.60756
292.58132
292.56338
292.55322
292.54996
292.5527
292.56108
292.57494
292.59443
292.61972
292.65146
292.69014
292.73726
292.79421
292.86399
292.95172
292.86705
292.85751
292.82199
292.81593
292.78872
292.78505
292.76219
292.7536
292.73177
292.71679
292.69358
292.66948
292.63896
292.60811
292.58261
292.56536
292.55582
292.55312
292.55637
292.56524
292.5796
292.59964
292.62551
292.65791
292.69731
292.74533
292.80332
292.87436
292.96346
292.86736
292.85715
292.8227
292.81568
292.78932
292.78499
292.7627
292.75375
292.73223
292.71705
292.69391
292.66962
292.63915
292.60871
292.58402
292.56751
292.55867
292.55658
292.56041
292.56987
292.58484
292.60553
292.63212
292.66531
292.70561
292.75471
292.81405
292.88652
292.97756
292.86765
292.85685
292.82335
292.81546
292.78986
292.78496
292.76318
292.75392
292.73268
292.71733
292.69422
292.66976
292.63935
292.6094
292.58556
292.56988
292.5618
292.56041
292.56491
292.57505
292.59073
292.6122
292.63963
292.67377
292.71514
292.7655
292.82651
292.90061
292.99419
292.86792
292.85659
292.82396
292.8153
292.79037
292.78498
292.76363
292.75413
292.73312
292.71762
292.69452
292.66989
292.63957
292.61019
292.58728
292.5725
292.56525
292.56464
292.56989
292.58081
292.59732
292.61967
292.64807
292.68329
292.72593
292.77771
292.84072
292.91664
293.01338
292.86818
292.85639
292.82452
292.81518
292.79085
292.78504
292.76407
292.75437
292.73355
292.71794
292.69481
292.67004
292.63984
292.61111
292.5892
292.57538
292.56903
292.56927
292.57536
292.58714
292.60457
292.62792
292.65742
292.69383
292.7379
292.79127
292.85653
292.9345
293.03492
292.86845
292.85622
292.82505
292.8151
292.79131
292.78514
292.7645
292.75464
292.73399
292.71829
292.69511
292.6702
292.64016
292.61219
292.59132
292.57851
292.57312
292.57426
292.58126
292.59398
292.61241
292.63685
292.66753
292.70524
292.75085
292.80595
292.87364
292.95388
293.05835
292.86872
292.85609
292.82557
292.81505
292.79176
292.78528
292.76493
292.75496
292.73444
292.71867
292.69543
292.67041
292.64057