/*--------------------------------*- C++ -*----------------------------------*\
| =========                 |                                                 |
| \\      /  F ield         | OpenFOAM: The Open Source CFD Toolbox           |
|  \\    /   O peration     | Version:  2206                                  |
|   \\  /    A nd           | Website:  www.openfoam.com                      |
|    \\/     M anipulation  |                                                 |
\*---------------------------------------------------------------------------*/
FoamFile
{
    version     2.0;
    format      ascii;
    arch        "LSB;label=32;scalar=64";
    class       volVectorField;
    location    "0";
    object      U;
}
// * * * * * * * * * * * * * * * * * * * * * * * * * * * * * * * * * * * * * //

dimensions      [0 1 -1 0 0 0 0];

internalField   nonuniform List<vector> 
19794
(
(63.461049 6.4112379 2.8417287e-18)
(63.426105 6.5352494 -3.7733937e-19)
(63.359094 6.6212374 7.9863159e-19)
(63.301968 6.6801064 1.2634026e-18)
(63.253416 6.7164159 0)
(63.215683 6.739027 -2.3183962e-18)
(63.187967 6.7506575 2.4211185e-18)
(63.167065 6.7538437 -2.0168967e-18)
(63.151365 6.7515775 0)
(63.139978 6.7464659 0)
(63.132175 6.7401632 0)
(63.127266 6.733682 0)
(63.124622 6.7276418 -1.0910956e-22)
(63.123669 6.7223359 0)
(63.123915 6.717817 0)
(63.124965 6.7139994 -9.8866573e-23)
(63.126533 6.7107458 -6.4593727e-19)
(63.12841 6.7079402 -3.5963938e-23)
(63.130451 6.7055109 -3.7834927e-23)
(63.132537 6.7034145 6.7286341e-19)
(63.134555 6.701628 0)
(63.136402 6.7001315 -3.4207252e-19)
(63.13797 6.6988806 -8.5971293e-20)
(63.139131 6.6978141 4.3114306e-19)
(63.139741 6.6968541 4.3162407e-20)
(63.139649 6.6958995 2.155787e-19)
(63.138692 6.6948393 -3.4387974e-19)
(63.13672 6.6935066 -3.4212018e-19)
(63.133596 6.6917239 -1.6981882e-19)
(63.129197 6.6893412 -6.7291056e-19)
(63.123436 6.6861514 6.6522439e-19)
(63.116168 6.6819739 0)
(63.107321 6.6766738 0)
(63.096749 6.6700761 1.2688129e-18)
(63.08428 6.662008 0)
(63.069692 6.6522006 6.0787205e-19)
(63.052734 6.6402207 -5.9287387e-19)
(63.033152 6.6253903 -1.7308186e-18)
(63.010732 6.6067238 2.7996155e-18)
(62.985319 6.5828802 1.6264724e-18)
(62.956887 6.5520936 -1.5706416e-18)
(62.925718 6.5123428 -2.0162164e-18)
(62.892332 6.4613238 -6.1521861e-22)
(62.857557 6.3963405 1.8542446e-18)
(62.822829 6.3139754 0)
(62.790728 6.2103608 -1.6838314e-18)
(62.765421 6.079446 1.5957257e-18)
(62.758933 5.9236132 1.5074943e-18)
(62.770598 5.8128731 -1.4192898e-18)
(63.531936 6.6982774 7.3296942e-19)
(63.541502 6.7701018 -3.8924998e-19)
(63.485399 6.7967477 0)
(63.441182 6.8197239 -1.73778e-18)
(63.395093 6.8350769 0)
(63.352827 6.8474366 1.9133308e-18)
(63.31589 6.8543431 0)
(63.285253 6.8564964 2.0807777e-18)
(63.259958 6.8552125 -2.7008014e-18)
(63.239029 6.8522499 5.5932322e-19)
(63.221766 6.8488457 -1.155434e-18)
(63.207635 6.8457096 1.1903316e-18)
(63.196137 6.8432168 6.1160607e-19)
(63.186742 6.8414452 1.8810865e-18)
(63.178914 6.8402593 -1.2826657e-18)
(63.172178 6.8394104 1.3088969e-18)
(63.166141 6.8386376 -6.6633928e-19)
(63.160558 6.8377258 3.3845157e-19)
(63.155282 6.8365446 1.3724605e-18)
(63.150214 6.8350386 -1.0412122e-18)
(63.145292 6.8331925 -1.7518226e-19)
(63.140489 6.8310005 5.2933915e-19)
(63.135769 6.8284638 8.8677671e-20)
(63.131063 6.8255866 -1.7792694e-19)
(63.126293 6.8223529 4.4530056e-20)
(63.121335 6.8187122 2.2241314e-19)
(63.116051 6.8145982 7.3950959e-24)
(63.110339 6.8098308 -1.7646897e-19)
(63.104166 6.8042365 0)
(63.097515 6.7977016 6.9423546e-19)
(63.090504 6.7901347 -1.3726238e-18)
(63.083167 6.7815048 -1.354077e-18)
(63.075659 6.7719249 6.6638099e-19)
(63.068003 6.7616302 -1.3090527e-18)
(63.06017 6.7509487 -1.2827858e-18)
(63.052084 6.740252 -6.2705807e-19)
(63.043667 6.7298629 -6.1166664e-19)
(63.034929 6.7199894 -5.9516058e-19)
(63.02605 6.7107184 5.7774582e-19)
(63.017419 6.7020305 5.5914453e-19)
(63.009832 6.6936472 -5.3983299e-19)
(63.004237 6.6850629 2.080802e-18)
(63.001557 6.6758655 2.4982774e-18)
(63.002666 6.6656951 -4.3054345e-18)
(63.008973 6.6534844 0)
(63.021717 6.6391776 1.7384304e-18)
(63.051377 6.6140232 0)
(63.083569 6.5927767 1.167926e-18)
(63.334924 6.4804735 2.1988211e-18)
(63.816553 6.7155934 -1.1354763e-18)
(63.738777 6.8477632 -2.0101492e-18)
(63.645638 6.9111109 8.5094919e-19)
(63.581977 6.9458014 8.9732373e-19)
(63.524803 6.9623189 2.3576566e-18)
(63.47669 6.9719346 -2.469929e-18)
(63.433557 6.9769725 -1.5477201e-18)
(63.395795 6.9791637 -2.1488211e-18)
(63.363163 6.9792097 2.231235e-18)
(63.335066 6.9781869 -1.1552628e-18)
(63.310667 6.9769892 2.3863583e-18)
(63.289355 6.9761177 -2.4584167e-18)
(63.270611 6.9758039 0)
(63.253903 6.9760327 -1.2950116e-18)
(63.238707 6.9766044 6.6222586e-19)
(63.224512 6.9772327 2.0274257e-18)
(63.21093 6.9775827 3.3301961e-23)
(63.197722 6.9773632 0)
(63.184711 6.9764061 7.086325e-19)
(63.171831 6.9746009 0)
(63.159111 6.9718517 -3.6178155e-19)
(63.146618 6.9681221 1.8220312e-19)
(63.134439 6.9634361 -1.2907107e-23)
(63.122648 6.9578148 -9.1867796e-20)
(63.111321 6.9512764 -4.5983113e-20)
(63.100516 6.9438403 -2.2966686e-19)
(63.090299 6.9355161 -4.2878287e-24)
(63.080684 6.9261843 5.4668487e-19)
(63.07179 6.9158018 5.4273168e-19)
(63.063715 6.904425 1.0753773e-18)
(63.056549 6.8920935 1.0630952e-18)
(63.050371 6.8789207 1.3982589e-18)
(63.045212 6.865152 0)
(63.04096 6.8511843 6.7592171e-19)
(63.037376 6.8374387 1.3247283e-18)
(63.034171 6.8243362 1.295157e-18)
(63.03102 6.8122094 -6.3171205e-19)
(63.027668 6.8012026 1.2293837e-18)
(63.024015 6.7912322 0)
(63.02016 6.781964 -1.7331517e-18)
(63.016346 6.7728486 2.7893829e-18)
(63.012427 6.7626563 -2.6863563e-18)
(63.008059 6.7492967 1.0318679e-18)
(63.002653 6.7297566 1.9761292e-18)
(62.99653 6.6985132 -4.7155759e-19)
(62.987883 6.6497727 0)
(62.989266 6.5634417 1.7020614e-18)
(62.953777 6.4327141 -3.6182247e-18)
(62.984194 6.2166155 7.5680255e-19)
(64.039522 6.7973076 2.3476161e-18)
(63.946821 6.929681 -4.1549999e-19)
(63.8348 7.0103495 0)
(63.749404 7.0620556 -4.6398431e-19)
(63.671743 7.0925526 -1.4625596e-18)
(63.606699 7.1112387 1.5320432e-18)
(63.549993 7.1220698 2.6666659e-18)
(63.500772 7.1283275 1.666039e-18)
(63.457704 7.131455 2.3066226e-18)
(63.419871 7.1326206 5.9717365e-19)
(63.386273 7.1327348 -1.2334608e-18)
(63.356229 7.1324008 -2.6090728e-23)
(63.32917 7.1319606 0)
(63.304546 7.1315183 -6.6939918e-19)
(63.281827 7.1310032 6.8457765e-19)
(63.260476 7.13022 -6.9860048e-19)
(63.240115 7.1288795 -7.1133483e-19)
(63.220394 7.1267726 7.2257971e-19)
(63.20107 7.1237448 -7.325174e-19)
(63.182068 7.1196198 0)
(63.16339 7.1142833 3.7397466e-19)
(63.145093 7.1077013 -1.8835354e-19)
(63.127263 7.0998641 5.6799384e-19)
(63.110032 7.0907811 2.8488826e-19)
(63.093535 7.0804655 4.7627237e-20)
(63.077896 7.0689232 -2.3743038e-19)
(63.063233 7.0562318 2.8402439e-19)
(63.049602 7.0423188 -3.7675753e-19)
(63.037154 7.0271707 -3.7403276e-19)
(63.025972 7.0109414 -7.4109294e-19)
(63.016049 6.9937085 -7.3263409e-19)
(63.007402 6.9756371 -1.4454812e-18)
(62.999844 6.9569474 1.4227865e-18)
(62.993145 6.9379411 0)
(62.987001 6.9189163 -1.3694295e-18)
(62.981027 6.9000954 2.0084412e-18)
(62.974833 6.8815637 6.530335e-19)
(62.968057 6.8631676 0)
(62.960434 6.8444392 0)
(62.951834 6.8245464 -1.1944421e-18)
(62.942214 6.8023074 1.1535114e-18)
(62.931586 6.7761284 0)
(62.92026 6.7438672 -5.3343414e-19)
(62.908659 6.7031964 2.5538587e-18)
(62.898835 6.6501037 1.9503291e-18)
(62.888724 6.5820888 1.8557669e-18)
(62.892345 6.4868865 -1.7596896e-18)
(62.868391 6.3562666 1.6627376e-18)
(62.972322 6.1828803 -1.1737831e-18)
(64.262729 6.9105984 -1.6201378e-18)
(64.144648 7.0433734 1.0608319e-22)
(64.022954 7.1315655 4.5535258e-19)
(63.922914 7.1912987 -2.4006009e-18)
(63.829502 7.2308101 -5.0461704e-19)
(63.748247 7.2573582 -8.9753208e-23)
(63.676372 7.2746345 5.5196157e-19)
(63.613525 7.2857199 -2.8083973e-23)
(63.55802 7.292349 -1.1936464e-18)
(63.508487 7.2958634 0)
(63.463778 7.2972371 6.3833545e-19)
(63.423184 7.2971799 6.5758635e-19)
(63.386136 7.2961466 0)
(63.352113 7.2943797 0)
(63.320599 7.2919628 0)
(63.291109 7.2888207 0)
(63.263213 7.2848177 0)
(63.236487 7.2798594 -3.7391558e-19)
(63.210676 7.2737956 -3.7903226e-19)
(63.185663 7.2664927 3.8345038e-19)
(63.161404 7.2578837 -3.8701655e-19)
(63.1379 7.2479257 -3.8985508e-19)
(63.115196 7.236602 -1.95942e-19)
(63.093333 7.223907 -1.9655724e-19)
(63.0724 7.2098726 4.9097908e-20)
(63.052483 7.1945365 3.4399031e-19)
(63.033627 7.177975 0)
(63.01593 7.1601154 -3.8992292e-19)
(62.999464 7.140927 -3.8710341e-19)
(62.984256 7.120591 3.8349619e-19)
(62.97024 7.099191 0)
(62.957348 7.076863 -7.4798535e-19)
(62.945388 7.0537859 -7.3625939e-19)
(62.934148 7.0301377 7.2317046e-19)
(62.923384 7.0060888 3.5144512e-23)
(62.912832 6.9817402 -6.9283142e-19)
(62.902254 6.9570533 -1.3517286e-18)
(62.891471 6.9317892 -6.5772757e-19)
(62.880364 6.905459 0)
(62.868966 6.8772947 6.1817077e-19)
(62.857433 6.8462478 -5.968869e-19)
(62.846098 6.8110751 -5.7493098e-19)
(62.835648 6.7701315 5.5210722e-19)
(62.8266 6.7218947 -2.1146937e-18)
(62.821086 6.6634195 -3.5327743e-18)
(62.816021 6.5930719 -2.4011039e-18)
(62.825076 6.502783 0)
(62.809688 6.385355 1.2910445e-18)
(62.848351 6.2213467 2.0249316e-18)
(64.487295 7.0209791 2.0988131e-18)
(64.341514 7.162957 1.33777e-18)
(64.207696 7.2626078 0)
(64.093301 7.3309656 -4.9760914e-19)
(63.986791 7.3779164 2.6143308e-18)
(63.892026 7.4101935 1.6431415e-18)
(63.806764 7.4320435 -1.7160757e-18)
(63.730809 7.4465375 -2.3825289e-18)
(63.662714 7.4555456 6.1849731e-19)
(63.601145 7.4605509 6.404468e-19)
(63.544974 7.4626265 0)
(63.493464 7.4625418 -1.3627292e-18)
(63.446025 7.4608097 0)
(63.402154 7.4577561 0)
(63.361352 7.453555 7.3420728e-19)
(63.323176 7.4482389 -7.4912754e-19)
(63.28715 7.4418024 -7.6280764e-19)
(63.25288 7.4341986 1.5497506e-18)
(63.220115 7.4253115 1.17832e-18)
(63.18866 7.4150379 -3.9725912e-19)
(63.158406 7.4033165 2.6452311e-23)
(63.129317 7.3901385 -2.0198346e-19)
(63.101414 7.37553 0)
(63.074685 7.3595265 -1.018372e-19)
(63.049137 7.342163 0)
(63.024817 7.3234749 -2.0367911e-19)
(63.001734 7.3035223 -2.0306664e-19)
(62.979884 7.282216 6.0602842e-19)
(62.959264 7.2595342 8.02217e-19)
(62.939889 7.2356859 3.9739617e-19)
(62.921691 7.2107611 -1.1785068e-18)
(62.904558 7.1848281 -3.8351724e-23)
(62.888367 7.1580189 1.5258502e-18)
(62.87296 7.1304666 -7.4929897e-19)
(62.858157 7.1022677 -1.4686797e-18)
(62.843804 7.0734474 1.4359154e-18)
(62.829781 7.0439246 7.003292e-19)
(62.816017 7.0134634 -2.4048047e-23)
(62.802554 6.9816337 1.3231581e-18)
(62.789541 6.9478112 -6.4059578e-19)
(62.777232 6.9111724 -6.1862313e-19)
(62.765925 6.8707598 0)
(62.756022 6.8251897 0)
(62.747277 6.7729187 5.4790762e-19)
(62.741083 6.7107243 -1.5695597e-23)
(62.733423 6.6356049 -4.9769831e-19)
(62.735648 6.5393654 1.4160518e-18)
(62.714439 6.4110569 -1.3380519e-18)
(62.718949 6.2322097 0)
(64.71011 7.1388213 -1.5294416e-22)
(64.540111 7.2841551 -1.8508134e-18)
(64.392366 7.3940069 4.8971151e-19)
(64.262539 7.4727508 -5.1625604e-19)
(64.142705 7.52894 -2.1703846e-18)
(64.034718 7.5679476 -4.5469155e-18)
(63.936603 7.594479 2.3742308e-18)
(63.847929 7.6119354 -1.2360369e-18)
(63.767397 7.6226528 0)
(63.693862 7.6284306 -1.3289757e-18)
(63.626323 7.6305742 0)
(63.564033 7.6299914 1.4139286e-18)
(63.506369 7.6272919 0)
(63.452808 7.6228816 0)
(63.402849 7.6170022 0)
(63.356037 7.6097705 0)
(63.3119 7.6012391 7.9139733e-19)
(63.270071 7.5913653 0)
(63.230266 7.5800557 3.4858823e-23)
(63.192258 7.5672417 4.1224511e-19)
(63.155876 7.5528845 -8.3213845e-19)
(63.120994 7.5369637 2.0955683e-19)
(63.08757 7.5195068 0)
(63.055613 7.5005499 2.1130714e-19)
(63.025078 7.4801018 0)
(62.995988 7.4582072 1.0566524e-19)
(62.968333 7.4349839 -1.0533357e-19)
(62.942075 7.4104062 0)
(62.917149 7.3844018 -4.1616505e-19)
(62.893556 7.3571275 -1.2368954e-18)
(62.871172 7.3287022 1.6303454e-18)
(62.84992 7.2992019 0)
(62.829681 7.2687201 0)
(62.810319 7.2373562 7.7751325e-19)
(62.791679 7.2051673 3.602606e-23)
(62.773628 7.1721437 -2.2349029e-18)
(62.756058 7.1381712 0)
(62.738943 7.1030075 7.0716857e-19)
(62.722316 7.066243 -2.0593533e-18)
(62.70629 7.0272922 0)
(62.691037 6.9853732 -6.4192321e-19)
(62.676626 6.9395279 6.1820557e-19)
(62.663181 6.8883168 0)
(62.650126 6.8299343 2.2742815e-18)
(62.638625 6.7608931 4.3422657e-18)
(62.624926 6.6772046 -5.1651139e-19)
(62.618177 6.5710018 -3.4289871e-18)
(62.594212 6.4306811 1.3888023e-18)
(62.589486 6.2450979 -1.3070432e-18)
(64.933723 7.2711886 -1.3582703e-18)
(64.740362 7.4145129 1.4427978e-18)
(64.577764 7.529538 -1.5264342e-18)
(64.432435 7.6167643 -2.6825559e-18)
(64.299177 7.6822848 -1.1276138e-18)
(64.177872 7.7292028 2.3624679e-18)
(64.066789 7.7617295 0)
(63.965296 7.7831483 1.2843924e-18)
(63.872249 7.7961698 0)
(63.786664 7.8029552 0)
(63.707665 7.8051421 -7.1298644e-19)
(63.634528 7.8039005 -7.3450484e-19)
(63.566618 7.8000395 0)
(63.503382 7.7941094 -7.738763e-19)
(63.444302 7.7864564 7.9143959e-19)
(63.388894 7.7772815 9.5979345e-23)
(63.336701 7.7666737 -2.4667542e-18)
(63.287341 7.7546102 4.1759382e-19)
(63.240474 7.741023 -4.1479316e-23)
(63.195819 7.7258448 8.5654734e-19)
(63.153174 7.7090299 -1.0807468e-18)
(63.112388 7.6905516 -2.34439e-23)
(63.073337 7.6703974 1.0941337e-19)
(63.035992 7.6485956 -6.4041146e-24)
(63.000302 7.6251772 -5.3657712e-23)
(62.966209 7.6001643 2.1956237e-19)
(62.933652 7.5736528 0)
(62.902607 7.5456448 0)
(62.873019 7.5160664 4.3240206e-19)
(62.844898 7.4851303 4.2837457e-19)
(62.818055 7.4529713 -4.234921e-19)
(62.79238 7.4196304 8.3558166e-19)
(62.767774 7.3852154 3.8677886e-23)
(62.744083 7.3498068 0)
(62.721144 7.3134463 -7.9166819e-19)
(62.698816 7.2761028 -3.6488611e-23)
(62.67699 7.2376485 7.5504645e-19)
(62.655594 7.197827 7.3475435e-19)
(62.634618 7.1562096 7.1326901e-19)
(62.614101 7.112175 1.381364e-18)
(62.594098 7.0648795 0)
(62.574597 7.0132314 1.2848781e-18)
(62.555699 6.9555999 -1.8510521e-18)
(62.537016 6.8898317 -1.181671e-18)
(62.519871 6.8122396 -2.8203404e-18)
(62.501664 6.7183227 0)
(62.489945 6.6012152 2.0363818e-18)
(62.4681 6.4514367 1.1321992e-22)
(62.464977 6.2602257 1.8111254e-18)
(65.160798 7.4186198 -4.713362e-19)
(64.943982 7.5587797 1.5015046e-18)
(64.765098 7.675107 2.1186294e-18)
(64.603855 7.7673368 1.675293e-18)
(64.457041 7.840183 1.7603951e-18)
(64.322573 7.8947352 1.2292678e-18)
(64.198734 7.9340917 0)
(64.084604 7.9607849 0)
(63.979161 7.9774233 1.3877362e-18)
(63.881555 7.9862852 0)
(63.791023 7.9892611 1.4840744e-18)
(63.706892 7.9878037 0)
(63.628549 7.9829814 -7.8548182e-19)
(63.555433 7.9755544 -8.0523591e-19)
(63.487019 7.9660326 8.2356483e-19)
(63.422804 7.9547358 8.4042853e-19)
(63.362334 7.9418272 -8.556185e-19)
(63.305198 7.9273488 4.3455946e-19)
(63.251011 7.9112742 -4.4053869e-19)
(63.199444 7.8935398 4.942914e-23)
(63.150248 7.874083 2.1913766e-23)
(63.103246 7.8528671 -4.5313466e-19)
(63.058277 7.8298624 2.2772826e-19)
(63.015222 7.8050662 1.1422614e-19)
(62.974028 7.7785012 -4.2499118e-28)
(62.934612 7.7501948 -1.142349e-19)
(62.896876 7.7202363 0)
(62.86074 7.6886552 0)
(62.826103 7.6553475 2.3169905e-24)
(62.79302 7.6205503 8.9155222e-19)
(62.761298 7.5844672 -1.3220637e-18)
(62.730799 7.5471258 1.3042312e-18)
(62.70139 7.5086479 -8.5583697e-19)
(62.672912 7.4691142 8.4065083e-19)
(62.645193 7.4285526 0)
(62.618073 7.3869184 8.0552748e-19)
(62.591418 7.3440615 0)
(62.565127 7.2996762 0)
(62.539166 7.2532669 0)
(62.513521 7.2041132 -7.1874796e-19)
(62.488264 7.1512232 6.9423078e-19)
(62.463447 7.0932756 -1.3372082e-18)
(62.439311 7.0283453 2.5686755e-18)
(62.415861 6.9538922 -1.2299511e-18)
(62.394606 6.8660529 5.8712882e-19)
(62.37417 6.7601326 -1.676206e-18)
(62.360796 6.630265 0)
(62.341911 6.4698946 -1.5024076e-18)
(62.342502 6.2719403 4.7132224e-19)
(65.391418 7.5804162 4.2913579e-23)
(65.152368 7.7182746 -1.5655868e-18)
(64.956189 7.8341539 0)
(64.778084 7.9283356 0)
(64.616972 8.0056794 0)
(64.469118 8.0662193 -9.2950829e-23)
(64.332667 8.1120413 0)
(64.206231 8.1446427 0)
(64.088746 8.1660813 -2.8931846e-18)
(63.979375 8.178371 -1.4978342e-18)
(63.877425 8.1834032 1.5468763e-18)
(63.78228 8.182774 0)
(63.693369 8.1777563 8.1874807e-19)
(63.610149 8.1693202 8.3932463e-19)
(63.532107 8.1581677 1.7168615e-18)
(63.458745 8.1447764 -8.7587024e-19)
(63.389603 8.1294389 -8.9180798e-19)
(63.324254 8.1123096 4.529901e-19)
(63.262294 8.093439 4.5919477e-19)
(63.203364 8.0728004 0)
(63.147164 8.0503406 2.3443025e-19)
(63.093479 8.0260285 4.7228082e-19)
(63.042122 7.9998422 -1.1868519e-19)
(62.992925 7.9717551 -5.9528523e-20)
(62.945768 7.9417765 5.9653395e-20)
(62.90057 7.9099515 -5.9542203e-20)
(62.857199 7.8763647 1.1869865e-19)
(62.815548 7.8410917 -2.3619625e-19)
(62.77548 7.8039734 -4.6898787e-19)
(62.737076 7.7652467 -4.6462713e-19)
(62.700111 7.7252168 9.1869364e-19)
(62.664417 7.6839052 -1.8125726e-18)
(62.629832 7.6414099 -3.6220347e-23)
(62.596183 7.5978014 -8.7623891e-19)
(62.563289 7.55308 0)
(62.530989 7.5071543 -8.3961569e-19)
(62.499131 7.4597972 -8.190447e-19)
(62.467628 7.4106018 0)
(62.436437 7.3589371 0)
(62.405605 7.3039092 0)
(62.375276 7.2442979 -2.1709685e-18)
(62.345623 7.1785027 -6.9699476e-19)
(62.317087 7.104294 -1.3389205e-18)
(62.290061 7.0188326 1.9233825e-18)
(62.26616 6.9182989 -6.1209406e-19)
(62.244789 6.7984101 1.747596e-18)
(62.230856 6.6545761 -1.6576069e-18)
(62.213421 6.4833096 -2.6110313e-18)
(62.215508 6.2801203 9.8287474e-19)
(65.624367 7.7560236 1.1361304e-22)
(65.365087 7.8932462 0)
(65.15166 8.008607 5.7681648e-19)
(64.956074 8.1028335 -1.2160909e-18)
(64.779675 8.1819467 6.3883248e-19)
(64.617731 8.2459724 -6.6935602e-19)
(64.468329 8.2965932 6.9868762e-19)
(64.329585 8.3344785 -1.454975e-18)
(64.200245 8.3609818 2.2660714e-18)
(64.07935 8.3775671 7.8218222e-19)
(63.966169 8.3858325 -2.4230143e-18)
(63.860097 8.3872797 1.6640116e-18)
(63.76059 8.3832247 -8.5486291e-19)
(63.667131 8.3747526 0)
(63.579228 8.3627126 -8.9633983e-19)
(63.496398 8.3477379 -9.1460739e-19)
(63.41819 8.3302726 -9.3125053e-19)
(63.344176 8.3106081 9.4592986e-19)
(63.273953 8.2889054 -3.0647043e-23)
(63.20715 8.2652199 -2.5984089e-23)
(63.143434 8.2395508 1.3407745e-23)
(63.082543 8.2118979 -4.9311991e-19)
(63.024271 8.1822598 -6.5717384e-24)
(62.968419 8.1506379 1.2430753e-19)
(62.914831 8.117051 -6.0765299e-23)
(62.86337 8.0815332 0)
(62.813925 8.0441747 -3.7185389e-19)
(62.766337 8.0051122 7.3988932e-19)
(62.720429 7.9641197 -2.4484361e-19)
(62.676318 7.9214297 9.7034129e-19)
(62.6337 7.87743 2.2563564e-23)
(62.592391 7.8320935 4.7316697e-19)
(62.552222 7.7854819 -9.3159736e-19)
(62.513005 7.7376119 9.149543e-19)
(62.474577 7.6884133 -8.9676046e-19)
(62.436773 7.6376998 8.7672373e-19)
(62.399463 7.5851179 8.5530016e-19)
(62.362586 7.5301 0)
(62.326165 7.471828 0)
(62.290335 7.4092056 -7.8254161e-19)
(62.255324 7.340792 3.7787599e-18)
(62.22145 7.2647544 -1.455926e-18)
(62.189349 7.1787372 0)
(62.15962 7.0799288 0)
(62.13385 6.9649648 0)
(62.111695 6.8305518 0)
(62.096712 6.6737461 2.3085287e-18)
(62.078526 6.4939797 2.1819097e-18)
(62.079009 6.2887317 0)
(65.858932 7.9453754 2.1489783e-18)
(65.580932 8.0836805 5.7049699e-19)
(65.350837 8.1995562 6.0366422e-19)
(65.137743 8.2932872 6.3633236e-19)
(64.945333 8.3722701 0)
(64.768483 8.4372257 -1.4005505e-18)
(64.60544 8.4901411 0)
(64.453951 8.5314075 1.5225316e-18)
(64.312554 8.5618851 0)
(64.180101 8.5824692 0)
(64.05574 8.5943047 1.6901021e-18)
(63.938799 8.5985918 -8.7049634e-19)
(63.828709 8.596491 -8.9445271e-19)
(63.724952 8.589045 0)
(63.627045 8.5771414 0)
(63.534523 8.5614984 1.9138517e-18)
(63.446945 8.5426701 -9.7415797e-19)
(63.363896 8.5210656 0)
(63.284986 8.4969604 5.0164571e-19)
(63.209843 8.470514 3.2060408e-23)
(63.138124 8.4418083 0)
(63.069539 8.4108924 -5.1592629e-19)
(63.003849 8.3778131 2.5928623e-19)
(62.940849 8.342616 6.5028466e-20)
(62.880346 8.3053354 -6.5038034e-20)
(62.822183 8.2660141 6.50345e-20)
(62.766228 8.2247532 1.2967496e-19)
(62.71227 8.1817803 1.2244727e-23)
(62.660058 8.1367506 -2.5616206e-19)
(62.609803 8.0898789 2.3614059e-23)
(62.561112 8.0416316 -1.0036108e-18)
(62.51378 7.99188 9.9015185e-19)
(62.467642 7.9406213 -4.8727896e-19)
(62.422531 7.8877891 0)
(62.378284 7.833203 9.3823301e-19)
(62.334761 7.7765437 1.8348594e-18)
(62.291881 7.717304 -8.9491437e-19)
(62.249639 7.6547486 8.7098278e-19)
(62.208148 7.5878958 0)
(62.167612 7.5154955 -8.1883469e-19)
(62.128339 7.4359999 -7.9083414e-19)
(62.090786 7.3475617 3.0469819e-18)
(62.055626 7.2479611 -7.3169905e-19)
(62.023562 7.1347942 7.0070897e-19)
(61.995917 7.0055389 -6.6908115e-19)
(61.972155 6.8581504 6.3675674e-19)
(61.954754 6.6912699 -1.8120345e-18)
(61.933577 6.5063979 -2.2836962e-18)
(61.929634 6.301668 -2.3572653e-23)
(66.09574 8.1497242 5.6341901e-19)
(65.799213 8.2900034 -2.3934801e-18)
(65.552801 8.4076127 -1.2661887e-18)
(65.322371 8.501354 -6.6749688e-19)
(65.113552 8.5794756 7.0125164e-19)
(64.921114 8.6435529 -7.3425603e-19)
(64.743658 8.6963064 0)
(64.578758 8.7384161 0)
(64.424801 8.7706768 0)
(64.280453 8.7936672 -8.5811333e-19)
(64.144714 8.8081466 -1.0106708e-22)
(64.016799 8.8149542 -1.8254831e-18)
(63.896064 8.8149756 2.8135833e-18)
(63.781948 8.8090739 1.47486e-22)
(63.673947 8.7980414 -9.8314932e-19)
(63.57159 8.7825689 0)
(63.47444 8.763231 0)
(63.382093 8.7404889 0)
(63.294169 8.7146917 -5.2592437e-19)
(63.21031 8.6860809 5.3201398e-19)
(63.13018 8.6548069 -5.3696751e-19)
(63.053469 8.6209832 5.4088468e-19)
(62.979931 8.5847146 1.3592876e-19)
(62.909327 8.546072 0)
(62.841463 8.505119 0)
(62.776163 8.4619211 -1.3638066e-19)
(62.713266 8.416594 -6.7405064e-24)
(62.652506 8.36947 5.4106612e-19)
(62.593545 8.3200263 0)
(62.53676 8.2684603 -2.6609866e-19)
(62.481635 8.2153477 0)
(62.42795 8.1603991 -1.5572295e-18)
(62.375561 8.1035261 -9.0434868e-23)
(62.32432 8.0445687 1.0037322e-18)
(62.274081 7.9832284 -1.9675142e-18)
(62.224749 7.9190532 5.4088371e-23)
(62.176305 7.8514096 5.8348019e-23)
(62.128814 7.7794515 -9.1327134e-19)
(62.082453 7.7021217 8.8668555e-19)
(62.037474 7.6181589 -8.5856878e-19)
(61.994245 7.5260872 -8.293115e-19)
(61.953238 7.4242664 -1.5976052e-18)
(61.9151 7.3109009 -1.5346514e-18)
(61.880413 7.1841983 -7.3490278e-19)
(61.850066 7.0425756 4.9972709e-23)
(61.823286 6.8851419 -1.335717e-18)
(61.801714 6.7115321 1.9006313e-18)
(61.775469 6.5241949 -9.721922e-23)
(61.765298 6.3209613 0)
(66.336918 8.3721949 -5.9248439e-19)
(66.020498 8.514092 0)
(65.757273 8.6339004 3.3276897e-18)
(65.509347 8.7283534 -2.8061132e-18)
(65.283753 8.8057245 2.2110618e-18)
(65.075141 8.8681314 1.5437674e-18)
(64.88252 8.9190279 0)
(64.703448 8.9596866 0)
(64.536263 8.9912192 0)
(64.379482 9.014243 9.0180716e-19)
(64.231954 9.0293688 0)
(64.092765 9.0371927 9.5939169e-19)
(63.961168 9.0383441 -9.8558372e-19)
(63.836531 9.0334605 0)
(63.718299 9.0231592 0)
(63.605974 9.0080069 0)
(63.499101 8.9885035 0)
(63.39727 8.9650789 0)
(63.300102 8.938081 0)
(63.207247 8.9077666 5.5909595e-19)
(63.118377 8.874342 -8.4644109e-19)
(63.033198 8.8379578 0)
(62.951431 8.7987207 -1.4284844e-19)
(62.872851 8.7567332 0)
(62.797243 8.7120932 7.172957e-20)
(62.724414 8.6648798 0)
(62.654191 8.6152128 2.8576003e-19)
(62.586236 8.5635592 -1.4214124e-19)
(62.520213 8.5091646 -5.6452966e-19)
(62.456554 8.4521882 2.7965265e-19)
(62.394695 8.3933827 0)
(62.334407 8.3322493 1.0910653e-18)
(62.275564 8.2686219 -2.6850276e-18)
(62.218038 8.2022633 5.2741905e-19)
(62.161718 8.1327873 1.5508837e-18)
(62.106563 8.0596574 1.0110587e-18)
(62.052605 7.9821835 -1.97254e-18)
(61.999964 7.8995123 -9.5992317e-19)
(61.94884 7.8106409 9.3197068e-19)
(61.899495 7.7144391 -2.7074591e-18)
(61.852291 7.6096796 1.7433127e-18)
(61.807621 7.4950675 0)
(61.765985 7.3693323 3.2263216e-18)
(61.72776 7.2313355 1.545008e-18)
(61.693389 7.0801807 0)
(61.661973 6.9157599 -7.0216567e-19)
(61.6346 6.7380379 -1.9981597e-18)
(61.602033 6.5494974 6.2957277e-19)
(61.584913 6.34729 -3.2184016e-23)
(66.58578 8.6176818 -1.6252852e-22)
(66.246836 8.7598528 -6.6322127e-19)
(65.965207 8.8811583 -8.0263681e-23)
(65.698835 8.9764008 7.3961497e-19)
(65.455725 9.0532401 -2.3304542e-18)
(65.230206 9.1138286 -3.2542501e-18)
(65.021591 9.1620364 8.4929233e-19)
(64.827483 9.1997057 -8.8419882e-19)
(64.646242 9.2284172 -9.1789668e-19)
(64.476292 9.2490832 -1.9008159e-18)
(64.316364 9.2624229 -6.566339e-23)
(64.16541 9.2689963 2.0216284e-18)
(64.022567 9.2693093 0)
(63.887105 9.2638353 1.0647283e-18)
(63.7584 9.2530207 -1.6331868e-18)
(63.635901 9.2372786 1.1108655e-18)
(63.519122 9.216987 0)
(63.407631 9.1924826 5.7448214e-19)
(63.301039 9.1640457 0)
(63.198991 9.1319114 -2.9452189e-19)
(63.101149 9.0962497 -2.9730732e-19)
(63.007232 9.0571949 -3.5005438e-23)
(62.916971 9.0148697 -2.5418658e-23)
(62.830122 8.9693776 1.5097299e-19)
(62.746456 8.9208269 0)
(62.665773 8.8692991 2.2650693e-19)
(62.587884 8.8149027 -4.5163956e-19)
(62.512393 8.758149 2.9954727e-19)
(62.439103 8.6982202 -3.2259825e-24)
(62.368249 8.6352005 2.9466487e-19)
(62.299405 8.5698976 0)
(62.232315 8.5017001 5.747928e-19)
(62.16686 8.4303998 1.1317419e-18)
(62.10293 8.3557131 -5.5575879e-19)
(62.040458 8.2772186 -1.6342599e-18)
(61.97944 8.1943709 1.0652895e-18)
(61.919939 8.1065128 0)
(61.862083 8.0128798 1.0115138e-18)
(61.806059 7.9126276 -9.8210041e-19)
(61.752097 7.8048556 9.5104417e-19)
(61.700473 7.6886475 -9.1867372e-19)
(61.651461 7.5631057 0)
(61.605356 7.4273711 -8.4999945e-19)
(61.562346 7.2807956 0)
(61.522608 7.1228926 -1.555115e-18)
(61.485183 6.9537788 2.2202956e-18)
(61.450983 6.7733243 -7.0212384e-19)
(61.41138 6.5836069 6.6382e-19)
(61.386893 6.3811445 -1.8740973e-18)
(66.846317 8.8922182 -6.6031704e-19)
(66.481435 9.0330273 -1.4021332e-18)
(66.178883 9.1543359 7.4148162e-19)
(65.892212 9.2495168 7.8160452e-19)
(65.630135 9.3255085 1.6425468e-18)
(65.386526 9.3841268 -8.5979608e-19)
(65.160805 9.4292627 8.9771899e-19)
(64.950578 9.4630934 9.3458662e-19)
(64.754224 9.487586 9.7016661e-19)
(64.570121 9.5040135 -2.008804e-18)
(64.396916 9.5133482 3.1112171e-18)
(64.233447 9.516286 -1.068243e-18)
(64.078735 9.5133651 -1.0976703e-18)
(63.931945 9.5050147 2.8126293e-18)
(63.792363 9.4915912 -1.7257426e-18)
(63.659366 9.4734005 -1.1740431e-18)
(63.532413 9.4507089 1.1950802e-18)
(63.411032 9.4237471 -3.0353546e-19)
(63.294807 9.3927132 0)
(63.183368 9.3577585 9.3368785e-19)
(63.076384 9.3189985 -6.2825449e-19)
(62.973541 9.2765363 1.5819407e-19)
(62.874573 9.2304664 3.1808389e-19)
(62.779223 9.1808787 -1.595322e-19)
(62.687256 9.1278646 7.9811911e-20)
(62.598462 9.0714979 -1.5956503e-19)
(62.512635 9.0118631 -3.1817902e-19)
(62.429353 8.9493811 6.3307472e-19)
(62.348529 8.8833835 3.1427948e-19)
(62.270219 8.8138835 -9.3414615e-19)
(62.194167 8.7415405 3.0780341e-19)
(62.12008 8.6657939 -1.2148715e-18)
(62.047835 8.5864251 1.7938339e-18)
(61.977344 8.5031415 -2.3494155e-18)
(61.908566 8.4155416 1.1512637e-18)
(61.841511 8.3231361 -5.6293884e-19)
(61.77624 8.2253652 5.4920432e-19)
(61.712857 8.1216137 1.0690605e-18)
(61.651504 8.0112348 2.0758442e-18)
(61.592339 7.8935736 -1.0052313e-18)
(61.535525 7.7679813 1.9418016e-18)
(61.481209 7.6338644 -9.3539466e-19)
(61.429549 7.4906305 -1.7971159e-18)
(61.380589 7.33781 8.6065371e-19)
(61.334369 7.1750393 2.4657773e-18)
(61.28991 7.0023422 7.8254437e-19)
(61.248087 6.8193328 -7.4233418e-19)
(61.200891 6.6276943 7.0189939e-19)
(61.16872 6.4235412 6.6047654e-19)
(67.122739 9.2023303 2.5163641e-22)
(66.728295 9.3406143 -1.487226e-18)
(66.401635 9.4603914 7.8641553e-19)
(66.09205 9.554043 -8.2918154e-19)
(65.808778 9.628168 1.7413859e-18)
(65.54526 9.6842091 9.1173859e-19)
(65.300829 9.725813 -1.9039058e-18)
(65.073026 9.755234 -1.9819339e-18)
(64.86019 9.7746278 1.0285056e-18)
(64.660647 9.7855416 -7.9513554e-23)
(64.472972 9.7891996 -1.4062814e-22)
(64.295913 9.7864992 0)
(64.128389 9.7781093 -5.8179779e-19)
(63.969465 9.7645232 -1.9819381e-23)
(63.81833 9.7461095 -6.0997575e-19)
(63.67428 9.7231469 2.4890511e-18)
(63.536704 9.69585 -6.3340784e-19)
(63.405074 9.6643867 -6.4353266e-19)
(63.27891 9.6288726 0)
(63.157812 9.589398 0)
(63.041436 9.546035 -1.6650371e-19)
(62.92945 9.4988356 3.3543305e-19)
(62.821556 9.4478565 -8.4304288e-20)
(62.717489 9.393158 8.4554384e-20)
(62.616999 9.3348059 -8.4605895e-20)
(62.519865 9.2728511 1.2686692e-19)
(62.425859 9.2073534 -8.4306804e-20)
(62.334565 9.1386161 -1.6778122e-19)
(62.245909 9.0661297 0)
(62.159909 8.9898571 -3.3009606e-19)
(62.076398 8.9102852 1.3054282e-18)
(61.995061 8.8269648 -2.2537922e-18)
(61.915769 8.739681 1.901656e-18)
(61.838447 8.6481635 6.2270946e-19)
(61.763059 8.5520659 -1.2206802e-18)
(61.689606 8.4509878 1.1935206e-18)
(61.618122 8.3444855 5.8234573e-19)
(61.548669 8.2320898 -2.266781e-18)
(61.481325 8.1133262 1.1006365e-18)
(61.416166 7.9877245 -1.0657539e-18)
(61.353252 7.8548092 -1.0296016e-18)
(61.292621 7.7141194 9.9182057e-19)
(61.234348 7.5651693 0)
(61.17837 7.4074724 9.1283415e-19)
(61.124649 7.2405494 9.316058e-23)
(61.072267 7.0642328 -8.2986883e-19)
(61.022218 6.8779358 -1.8642771e-23)
(60.967097 6.6832142 5.830978e-23)
(60.927172 6.475773 -1.4014323e-18)
(67.419456 9.5548423 1.889514e-22)
(66.991809 9.6902861 -7.9152812e-19)
(66.6375 9.8076436 1.6746206e-18)
(66.301831 9.8983618 -1.7644859e-18)
(65.994457 9.9692241 -2.7806151e-18)
(65.708544 10.021594 9.7035187e-19)
(65.443206 10.058842 1.013146e-18)
(65.19587 10.08317 2.1090613e-18)
(64.964763 10.096749 0)
(64.748125 10.101258 5.6655475e-19)
(64.544445 10.098086 0)
(64.352381 10.0883 0)
(64.170756 10.072717 1.2380994e-18)
(63.998539 10.051947 1.119347e-22)
(63.834829 10.026437 -3.8932639e-18)
(63.678835 9.99651 -2.1650036e-22)
(63.529865 9.9623895 -6.7421599e-19)
(63.387323 9.9242424 2.0538944e-18)
(63.250696 9.8821778 0)
(63.11948 9.8362372 -3.5103872e-19)
(62.993289 9.7864668 7.0852141e-19)
(62.871777 9.7329104 -3.5686486e-19)
(62.754615 9.6755909 -8.9680075e-20)
(62.641507 9.6145387 1.7992572e-19)
(62.532184 9.5497891 0)
(62.426404 9.4813654 1.3180608e-24)
(62.323914 9.4093041 -1.7941253e-19)