/*--------------------------------*- C++ -*----------------------------------*\
| =========                 |                                                 |
| \\      /  F ield         | OpenFOAM: The Open Source CFD Toolbox           |
|  \\    /   O peration     | Version:  2206                                  |
|   \\  /    A nd           | Website:  www.openfoam.com                      |
|    \\/     M anipulation  |                                                 |
\*---------------------------------------------------------------------------*/
FoamFile
{
    version     2.0;
    format      ascii;
    arch        "LSB;label=32;scalar=64";
    class       volScalarField;
    location    "0.01";
    object      alphat;
}
// * * * * * * * * * * * * * * * * * * * * * * * * * * * * * * * * * * * * * //

dimensions      [1 -1 -1 0 0 0 0];

internalField   nonuniform List<scalar> 
1396
(
2.5795969e-08
2.7323643e-08
2.7848626e-08
2.7841307e-08
2.7755445e-08
2.7745215e-08
2.7756241e-08
2.7763404e-08
2.7766424e-08
2.7767489e-08
2.7767855e-08
2.6444287e-08
2.7330428e-08
2.7774109e-08
2.7828002e-08
2.7762578e-08
2.7747948e-08
2.7756612e-08
2.776345e-08
2.7766601e-08
2.7767347e-08
2.7767622e-08
2.6055332e-08
2.7136123e-08
2.7692343e-08
2.7792827e-08
2.7761535e-08
2.7749074e-08
2.7756506e-08
2.7763411e-08
2.7766452e-08
2.7767132e-08
2.7767377e-08
2.7058971e-08
2.7269829e-08
2.7665983e-08
2.7773025e-08
2.7761815e-08
2.7750724e-08
2.7756858e-08
2.7763518e-08
2.7766275e-08
2.7766842e-08
2.7767066e-08
2.7279416e-08
2.7262798e-08
2.7615577e-08
2.7737767e-08
2.7753289e-08
2.7750608e-08
2.7757124e-08
2.7763518e-08
2.7765998e-08
2.776645e-08
2.776666e-08
2.8196574e-08
2.7522597e-08
2.7619013e-08
2.7713966e-08
2.7742338e-08
2.774989e-08
2.7757525e-08
2.7763426e-08
2.7765569e-08
2.7765871e-08
2.7766051e-08
2.8332067e-08
2.7623237e-08
2.7608582e-08
2.7691306e-08
2.773267e-08
2.7748754e-08
2.7757866e-08
2.7763138e-08
2.776489e-08
2.7765004e-08
2.7765062e-08
2.9013818e-08
2.77928e-08
2.7602487e-08
2.7671291e-08
2.7725485e-08
2.7747904e-08
2.7757942e-08
2.7762527e-08
2.776376e-08
2.7763561e-08
2.7763388e-08
2.9206433e-08
2.7873366e-08
2.7610903e-08
2.7666343e-08
2.7723666e-08
2.7747854e-08
2.7757666e-08
2.7761438e-08
2.7762094e-08
2.7761087e-08
2.7760425e-08
2.9578566e-08
2.7959642e-08
2.7628846e-08
2.7664166e-08
2.7721465e-08
2.7747019e-08
2.7756701e-08
2.7759575e-08
2.7759369e-08
2.7756962e-08
2.775514e-08
2.962675e-08
2.8028816e-08
2.7684445e-08
2.7677873e-08
2.7722236e-08
2.7745934e-08
2.7755181e-08
2.7756594e-08
2.7754829e-08
2.7750137e-08
2.7745924e-08
2.9753205e-08
2.8051361e-08
2.7713934e-08
2.7684237e-08
2.7720443e-08
2.7743769e-08
2.7753119e-08
2.775296e-08
2.774779e-08
2.7739267e-08
2.7730596e-08
2.9699318e-08
2.8098831e-08
2.7756302e-08
2.7697667e-08
2.771988e-08
2.7741179e-08
2.7750312e-08
2.7747337e-08
2.7737661e-08
2.7722584e-08
2.7705906e-08
2.8091439e-08
2.7760125e-08
2.7705087e-08
2.7718975e-08
2.7738293e-08
2.7745277e-08
2.7739088e-08
2.7722814e-08
2.769694e-08
2.7665593e-08
2.7767704e-08
2.7767395e-08
2.7767118e-08
2.7766686e-08
2.7766076e-08
2.7765071e-08
2.7763339e-08
2.7760239e-08
2.775458e-08
2.7744264e-08
2.7726108e-08
2.7695789e-08
2.7645212e-08
2.7561845e-08
2.7767453e-08
2.7767067e-08
2.776668e-08
2.7766008e-08
2.7764917e-08
2.7762899e-08
2.7759071e-08
2.7751714e-08
2.7737697e-08
2.7711676e-08
2.7665896e-08
2.7590012e-08
2.7467485e-08
2.7281075e-08
2.7767245e-08
2.7766768e-08
2.7766206e-08
2.7765135e-08
2.7763167e-08
2.7759239e-08
2.7751389e-08
2.7735924e-08
2.7706314e-08
2.7652066e-08
2.7559061e-08
2.7410158e-08
2.7182912e-08
2.6859769e-08
2.7767099e-08
2.7766522e-08
2.7765729e-08
2.7764107e-08
2.776086e-08
2.7754087e-08
2.7740196e-08
2.7712586e-08
2.766003e-08
2.7565497e-08
2.740765e-08
2.7163103e-08
2.6806863e-08
2.6327441e-08
2.7767057e-08
2.7766376e-08
2.776535e-08
2.776315e-08
2.775852e-08
2.7748563e-08
2.772776e-08
2.7686192e-08
2.7607482e-08
2.7468009e-08
2.7239911e-08
2.6895454e-08
2.6410883e-08
2.5782703e-08
2.7767026e-08
2.7766332e-08
2.7765177e-08
2.7762582e-08
2.775685e-08
2.7744163e-08
2.7717299e-08
2.7663149e-08
2.7560681e-08
2.7380436e-08
2.7089139e-08
2.6656214e-08
2.6060414e-08
2.5306424e-08
2.7767041e-08
2.7766345e-08
2.776515e-08
2.7762409e-08
2.7756176e-08
2.7742073e-08
2.7711542e-08
2.7649149e-08
2.7530156e-08
2.7320417e-08
2.698226e-08
2.6482633e-08
2.5802515e-08
2.4951726e-08
2.7767123e-08
2.7766459e-08
2.7765335e-08
2.7762731e-08
2.775668e-08
2.7742657e-08
2.7711586e-08
2.7646863e-08
2.7521508e-08
2.7298033e-08
2.6934727e-08
2.6395607e-08
2.5661612e-08
2.4745843e-08
2.7767268e-08
2.7766664e-08
2.7765694e-08
2.7763449e-08
2.7758163e-08
2.7745616e-08
2.7717085e-08
2.7656128e-08
2.7535263e-08
2.7315216e-08
2.6950959e-08
2.6402585e-08
2.5647964e-08
2.4699812e-08
2.7767463e-08
2.7766934e-08
2.7766151e-08
2.7764388e-08
2.7760232e-08
2.7750161e-08
2.7726608e-08
2.7674722e-08
2.7568572e-08
2.7369313e-08
2.7029956e-08
2.6506003e-08
2.5768796e-08
2.4826303e-08
2.7767695e-08
2.7767237e-08
2.7766634e-08
2.7765349e-08
2.7762383e-08
2.7755105e-08
2.7737609e-08
2.7697712e-08
2.7612929e-08
2.7447342e-08
2.7154172e-08
2.6684769e-08
2.6001458e-08
2.5103451e-08
2.7767951e-08
2.7767551e-08
2.776709e-08
2.7766196e-08
2.7764248e-08
2.7759494e-08
2.7747823e-08
2.7720283e-08
2.7659265e-08
2.7534434e-08
2.7302597e-08
2.6913593e-08
2.6320403e-08
2.5508898e-08
2.7768257e-08
2.7767908e-08
2.7767549e-08
2.7766934e-08
2.7765719e-08
2.7762848e-08
2.7755726e-08
2.7738365e-08
2.7698157e-08
2.7611441e-08
2.7441006e-08
2.7138256e-08
2.6648702e-08
2.5943738e-08
2.7768359e-08
2.7768033e-08
2.7767725e-08
2.7767246e-08
2.7766439e-08
2.7764721e-08
2.7760643e-08
2.7750824e-08
2.7727851e-08
2.7677373e-08
2.7575471e-08
2.7388282e-08
2.7073321e-08
2.6598139e-08
2.7769161e-08
2.7768906e-08
2.776866e-08
2.7768386e-08
2.776806e-08
2.7767559e-08
2.7766691e-08
2.7764647e-08
2.7759535e-08
2.7746726e-08
2.771456e-08
2.7636307e-08
2.7469199e-08
2.7165034e-08
2.7769537e-08
2.7769313e-08
2.7769088e-08
2.7768852e-08
2.7768594e-08
2.776827e-08
2.7767867e-08
2.7767115e-08
2.7765333e-08
2.7760558e-08
2.774744e-08
2.7712282e-08
2.7631144e-08
2.7455739e-08
2.776986e-08
2.7769656e-08
2.7769453e-08
2.7769236e-08
2.7769011e-08
2.7768748e-08
2.7768455e-08
2.7768064e-08
2.7767411e-08
2.7765923e-08
2.7761683e-08
2.7749344e-08
2.7718248e-08
2.7637287e-08
2.7770118e-08
2.7769937e-08
2.7769752e-08
2.7769561e-08
2.7769342e-08
2.7769102e-08
2.7768846e-08
2.776855e-08
2.7768176e-08
2.7767596e-08
2.7766337e-08
2.7762638e-08
2.7751735e-08
2.7718973e-08
2.7770367e-08
2.7770206e-08
2.7770047e-08
2.7769879e-08
2.7769709e-08
2.7769506e-08
2.7769277e-08
2.7769018e-08
2.7768718e-08
2.7768345e-08
2.7767797e-08
2.7766558e-08
2.7763086e-08
2.7751178e-08
2.7770564e-08
2.7770411e-08
2.7770263e-08
2.7770105e-08
2.7769946e-08
2.7769759e-08
2.7769548e-08
2.7769308e-08
2.7769035e-08
2.7768722e-08
2.7768325e-08
2.7767721e-08
2.7766479e-08
2.7762476e-08
2.7346002e-08
2.6778775e-08
2.5761774e-08
2.4278183e-08
2.2532469e-08
2.0789743e-08
1.9219506e-08
1.7973879e-08
1.7388662e-08
1.7124561e-08
1.8047205e-08
1.8285657e-08
1.8499713e-08
2.1410708e-08
2.6867605e-08
2.5925969e-08
2.4500016e-08
2.2747591e-08
2.0931966e-08
1.9235619e-08
1.7794848e-08
1.6720158e-08
1.6454657e-08
1.6379372e-08
1.7341331e-08
1.7302715e-08
1.7504068e-08
2.0607995e-08
2.619286e-08
2.4900971e-08
2.3205053e-08
2.1356297e-08
1.9561185e-08
1.7949211e-08
1.6657957e-08
1.5738125e-08
1.5767145e-08
1.5931236e-08
1.6721329e-08
1.6299387e-08
1.6592411e-08
1.965408e-08
2.5405727e-08
2.3850178e-08
2.2019929e-08
2.0160859e-08
1.8417119e-08
1.6893856e-08
1.5751268e-08
1.4955536e-08
1.5220679e-08
1.5594713e-08
1.6120862e-08
1.532341e-08
1.5747287e-08
1.878383e-08
2.4649543e-08
2.2937841e-08
2.1059041e-08
1.9219909e-08
1.752962e-08
1.6078532e-08
1.5054492e-08
1.4340768e-08
1.479138e-08
1.5350898e-08
1.5617871e-08
1.4570825e-08
1.507245e-08
1.8046019e-08
2.4018906e-08
2.2225182e-08
2.0332068e-08
1.8513969e-08
1.6863463e-08
1.545821e-08
1.4510692e-08
1.3875362e-08
1.4423221e-08
1.5095025e-08
1.5148295e-08
1.3965518e-08
1.4498803e-08
1.7300594e-08
2.3561381e-08
2.1723588e-08
1.98224e-08
1.8013051e-08
1.6379953e-08
1.4988186e-08
1.4034269e-08
1.3498491e-08
1.4096843e-08
1.4790305e-08
1.4709386e-08
1.3468985e-08
1.4003302e-08
1.660594e-08
2.3292863e-08
2.1424426e-08
1.9507541e-08
1.7687661e-08
1.6044314e-08
1.4637229e-08
1.3626151e-08
1.3139925e-08
1.3736526e-08
1.4434304e-08
1.430078e-08
1.303648e-08
1.3551826e-08
1.5937838e-08
2.3217299e-08
2.1320029e-08
1.9373815e-08
1.7520778e-08
1.5837394e-08
1.4378423e-08
1.3275293e-08
1.275403e-08
1.3308177e-08
1.4017176e-08
1.3935625e-08
1.2656887e-08
1.3114399e-08
1.53184e-08
2.335041e-08
2.1429705e-08
1.9443473e-08
1.7538035e-08
1.5789093e-08
1.4247163e-08
1.302251e-08
1.2378644e-08
1.2849842e-08
1.3565632e-08
1.3656093e-08
1.2406511e-08
1.2765821e-08
1.4608129e-08
2.3672808e-08
2.1735478e-08
1.9700321e-08
1.7724587e-08
1.5886916e-08
1.4239866e-08
1.2866233e-08
1.2016893e-08
1.2331333e-08
1.3027203e-08
1.3347293e-08
1.2219174e-08
1.2422367e-08
1.3888604e-08
2.4175181e-08
2.2251384e-08
2.0170218e-08
1.8113881e-08
1.6170396e-08
1.439614e-08
1.2864606e-08
1.1739228e-08
1.1824427e-08
1.2423298e-08
1.3008787e-08
1.2166131e-08
1.2130904e-08
1.3212197e-08
2.473948e-08
2.2864338e-08
2.0746616e-08
1.8609541e-08
1.655792e-08
1.4650222e-08
1.2977271e-08
1.1542967e-08
1.1325847e-08
1.1736653e-08
1.2483796e-08
1.2117587e-08
1.1785984e-08
1.2610611e-08
2.5759158e-08
2.4121632e-08
2.2064553e-08
1.9854383e-08
1.7650337e-08
1.5539909e-08
1.3645354e-08
1.1806982e-08
1.1161398e-08
1.1184542e-08
1.20687e-08
1.2308621e-08
1.1818628e-08
1.200566e-08
2.7772225e-08
2.7772208e-08
2.7772209e-08
2.7772209e-08
2.7772183e-08
2.7772183e-08
2.7772185e-08
2.7772185e-08
2.7772146e-08
2.7772146e-08
2.7772147e-08
2.7772148e-08
2.7772151e-08
2.7772152e-08
2.7772086e-08
2.7772086e-08
2.7772089e-08
2.7772091e-08
2.7772093e-08
2.7772094e-08
2.7772098e-08
2.77721e-08
2.7771986e-08
2.7771986e-08
2.7771987e-08
2.7771989e-08
2.7771994e-08
2.7771997e-08
2.7772e-08
2.7772004e-08
2.7772012e-08
2.7772015e-08
2.7771794e-08
2.7771793e-08
2.7771792e-08
2.7771794e-08
2.7771797e-08
2.7771806e-08
2.7771812e-08
2.7771819e-08
2.7771827e-08
2.7771836e-08
2.7771846e-08
2.7771859e-08
2.7771354e-08
2.7771341e-08
2.7771332e-08
2.777133e-08
2.7771333e-08
2.7771342e-08
2.7771353e-08
2.7771376e-08
2.7771394e-08
2.7771414e-08
2.7771436e-08
2.7771462e-08
2.7771489e-08
2.7769997e-08
2.7769918e-08
2.7769857e-08
2.7769821e-08
2.7769813e-08
2.7769823e-08
2.7769851e-08
2.7769897e-08
2.7769961e-08
2.7770046e-08
2.7770116e-08
2.7770196e-08
2.7770303e-08
2.7770294e-08
2.7772265e-08
2.7772265e-08
2.7772265e-08
2.7772264e-08
2.7772261e-08
2.7772261e-08
2.777226e-08
2.777226e-08
2.777226e-08
2.7772259e-08
2.7772255e-08
2.7772255e-08
2.7772255e-08
2.7772255e-08
2.7772254e-08
2.7772254e-08
2.7772253e-08
2.7772253e-08
2.7772247e-08
2.7772248e-08
2.7772247e-08
2.7772247e-08
2.7772248e-08
2.7772247e-08
2.7772246e-08
2.7772245e-08
2.7772245e-08
2.7772244e-08
2.7772237e-08
2.7772238e-08
2.7772238e-08
2.7772238e-08
2.7772238e-08
2.7772238e-08
2.7772238e-08
2.7772236e-08
2.7772235e-08
2.7772234e-08
2.7772233e-08
2.7772232e-08
2.7772225e-08
2.7772225e-08
2.7772225e-08
2.7772225e-08
2.7772225e-08
2.7772225e-08
2.7772225e-08
2.7772225e-08
2.7772224e-08
2.7772222e-08
2.7772221e-08
2.7772219e-08
2.7772218e-08
2.7772217e-08
2.7772207e-08
2.7772208e-08
2.7772207e-08
2.7772207e-08
2.7772207e-08
2.7772207e-08
2.7772207e-08
2.7772206e-08
2.7772204e-08
2.7772202e-08
2.77722e-08
2.7772198e-08
2.7772196e-08
2.7772194e-08
2.7772182e-08
2.7772182e-08
2.7772182e-08
2.7772181e-08
2.7772181e-08
2.7772182e-08
2.7772181e-08
2.7772179e-08
2.7772175e-08
2.7772172e-08
2.7772169e-08
2.7772166e-08
2.7772163e-08
2.777216e-08
2.7772145e-08
2.7772145e-08
2.7772144e-08
2.7772144e-08
2.7772144e-08
2.7772143e-08
2.7772141e-08
2.7772136e-08
2.777213e-08
2.7772125e-08
2.7772119e-08
2.7772114e-08
2.7772108e-08
2.7772102e-08
2.7772086e-08
2.7772085e-08
2.7772086e-08
2.7772084e-08
2.7772084e-08
2.7772083e-08
2.7772076e-08
2.7772065e-08
2.7772055e-08
2.7772044e-08
2.7772031e-08
2.7772012e-08
2.7771987e-08
2.7771954e-08
2.7771986e-08
2.7771985e-08
2.7771984e-08
2.7771984e-08
2.777198e-08
2.7771973e-08
2.7771956e-08
2.7771942e-08
2.7771934e-08
2.7771933e-08
2.7771889e-08
2.777158e-08
2.7770562e-08
2.7769044e-08
2.7771796e-08
2.7771795e-08
2.7771789e-08
2.7771786e-08
2.7771774e-08
2.7771739e-08
2.777168e-08
2.7771593e-08
2.7771352e-08
2.7771052e-08
2.7770666e-08
2.7764974e-08
2.7748301e-08
2.7731306e-08
2.7771366e-08
2.7771364e-08
2.7771355e-08
2.7771357e-08
2.7771323e-08
2.777123e-08
2.7770973e-08
2.7769726e-08
2.7766303e-08
2.7767908e-08
2.7804315e-08
2.7907606e-08
2.7990776e-08
2.7908406e-08
2.7770055e-08
2.7770032e-08
2.77701e-08
2.7770392e-08
2.7771677e-08
2.777596e-08
2.7787975e-08
2.780739e-08
2.7811189e-08
2.7872879e-08
2.8411985e-08
2.9507219e-08
2.8346225e-08
2.6984982e-08
2.7554262e-08
2.75079e-08
2.7386084e-08
2.6989926e-08
2.6178972e-08
2.5055022e-08
2.3874197e-08
2.2887914e-08
2.2363697e-08
2.1862143e-08
2.2841861e-08
2.7885834e-08
2.7554308e-08
2.7625237e-08
2.7507496e-08
2.7245267e-08
2.6620801e-08
2.5583305e-08
2.4304319e-08
2.3057156e-08
2.2058604e-08
2.1669289e-08
2.1289786e-08
2.228985e-08
2.6991652e-08
2.7752168e-08
2.7679673e-08
2.7640539e-08
2.7444319e-08
2.7020247e-08
2.617903e-08
2.4940101e-08
2.3548552e-08
2.2266199e-08
2.1284955e-08
2.1040476e-08
2.0791854e-08
2.1832873e-08
2.6198365e-08
2.7734053e-08
2.7696481e-08
2.7595777e-08
2.7317739e-08
2.6708605e-08
2.5656198e-08
2.4255053e-08
2.2792506e-08
2.1508451e-08
2.0567075e-08
2.0476259e-08
2.0335274e-08
2.142824e-08
2.5993506e-08
2.7732241e-08
2.7675921e-08
2.7516659e-08
2.7114324e-08
2.6319638e-08
2.5071426e-08
2.3551565e-08
2.2051779e-08
2.0798336e-08
1.9918514e-08
1.9991982e-08
2.0000372e-08
2.1048677e-08
2.5229529e-08
2.7723131e-08
2.7634717e-08
2.7391661e-08
2.6847782e-08
2.5861652e-08
2.4445684e-08
2.2846364e-08
2.1336192e-08
2.0140073e-08
1.9335515e-08
1.9576332e-08
1.9727203e-08
2.0665133e-08
2.4477832e-08
2.770054e-08
2.756407e-08
2.7222301e-08
2.6520083e-08
2.53466e-08
2.379775e-08
2.2150608e-08
2.0650515e-08
1.9532839e-08
1.8807032e-08
1.9225209e-08
1.948071e-08
2.0274882e-08
2.3970608e-08
2.7663222e-08
2.7465752e-08
2.7008727e-08
2.6138077e-08
2.4794247e-08
2.3149336e-08
2.1480794e-08
2.0008636e-08
1.8988621e-08
1.8344986e-08
1.8941756e-08
1.9288295e-08
1.9889258e-08
2.3165844e-08
2.7607683e-08
2.7333521e-08
2.6743783e-08
2.5700928e-08
2.4210612e-08
2.2498757e-08
2.0827273e-08
1.9395909e-08
1.848617e-08
1.7934108e-08
1.8677923e-08
1.9071155e-08
1.9492725e-08
2.2517618e-08
2.7541413e-08
2.7182011e-08
2.6455565e-08
2.5251001e-08
2.3642346e-08
2.1889123e-08
2.0226925e-08
1.8840481e-08
1.8038917e-08
1.7553122e-08
1.8410749e-08
1.8804919e-08
1.9073126e-08
2.1512785e-08
2.7770752e-08
2.7770845e-08
2.7770971e-08
2.7771042e-08
2.5231727e-08
2.3461906e-08
2.1374112e-08
1.918407e-08
1.7041154e-08
1.5019488e-08
1.3200539e-08
1.162726e-08
1.0886641e-08
1.0527436e-08
1.1753505e-08
1.2249203e-08
1.1661932e-08
1.1788046e-08
2.4553507e-08
2.2659486e-08
2.0549419e-08
1.8394481e-08
1.6309578e-08
1.4356895e-08
1.2620149e-08
1.1128372e-08
1.0420178e-08
1.0225749e-08
1.1418472e-08
1.1993795e-08
1.1440189e-08
1.1242167e-08
2.6293059e-08
2.5820809e-08
2.6949348e-08
2.669416e-08
2.737574e-08
2.723964e-08
2.7606144e-08
2.7708073e-08
2.7772261e-08
2.7772256e-08
2.7772261e-08
2.7772256e-08
2.7772248e-08
2.7772262e-08
2.7772256e-08
2.7772248e-08
2.7772239e-08
2.7772262e-08
2.7772256e-08
2.7772249e-08
2.7772239e-08
2.7772226e-08
2.7772209e-08
2.7772262e-08
2.7772256e-08
2.7772248e-08
2.7772239e-08
2.7772226e-08
2.7772209e-08
2.7772184e-08
2.7772262e-08
2.7772256e-08
2.7772248e-08
2.7772239e-08
2.7772227e-08
2.7772209e-08
2.7772184e-08
2.7772146e-08
2.7772262e-08
2.7772256e-08
2.7772249e-08
2.7772239e-08
2.7772227e-08
2.7772209e-08
2.7772184e-08
2.7772146e-08
2.7772085e-08
2.7772263e-08
2.7772257e-08
2.777225e-08
2.7772241e-08
2.7772228e-08
2.7772211e-08
2.7772186e-08
2.7772148e-08
2.7772085e-08
2.7771884e-08
2.7772263e-08
2.7772258e-08
2.7772251e-08
2.7772241e-08
2.7772229e-08
2.7772212e-08
2.7772187e-08
2.777215e-08
2.7772088e-08
2.7771897e-08
2.776765e-08
2.7772264e-08
2.7772259e-08
2.7772252e-08
2.7772243e-08
2.7772231e-08
2.7772215e-08
2.7772191e-08
2.7772155e-08
2.7772095e-08
2.7771904e-08
2.7767222e-08
2.7725319e-08
2.7772295e-08
2.7772295e-08
2.7772295e-08
2.7772295e-08
2.7772295e-08
2.7772295e-08
2.7772295e-08
2.7772295e-08
2.7772295e-08
2.7772295e-08
2.7772295e-08
2.7772295e-08
2.7772294e-08
2.7772295e-08
2.7772295e-08
2.7772295e-08
2.7772295e-08
2.7772295e-08
2.7772295e-08
2.7772295e-08
2.7772295e-08
2.7772294e-08
2.7772293e-08
2.7772291e-08
2.7772295e-08
2.7772295e-08
2.7772295e-08
2.7772295e-08
2.7772294e-08
2.7772293e-08
2.7772291e-08
2.7772283e-08
2.7772295e-08
2.7772295e-08
2.7772294e-08
2.7772293e-08
2.7772291e-08
2.7772283e-08
2.7772294e-08
2.7772293e-08
2.7772291e-08
2.7772283e-08
2.7772293e-08
2.7772291e-08
2.7772283e-08
2.7772291e-08
2.7772283e-08
2.7772291e-08
2.7772283e-08
2.7772283e-08
2.7772283e-08
2.7772283e-08
2.7772284e-08
5.6123551e-08
2.7873175e-08
2.8030325e-08
2.7772653e-08
2.7771624e-08
2.7771799e-08
2.7771937e-08
2.7772025e-08
2.7772085e-08
2.7772125e-08
2.7772155e-08
2.7772178e-08
2.7772196e-08
2.777221e-08
5.2001881e-08
2.7875833e-08
2.7963221e-08
2.7772461e-08
2.7771687e-08
2.7771854e-08
2.7771976e-08
2.7772055e-08
2.7772108e-08
2.7772145e-08
2.7772171e-08
2.7772192e-08
2.7772207e-08
2.777222e-08
4.8920917e-08
2.7879222e-08
2.7918218e-08
2.7772325e-08
2.7771739e-08
2.7771896e-08
2.7772007e-08
2.7772078e-08
2.7772126e-08
2.7772159e-08
2.7772184e-08
2.7772203e-08
2.7772216e-08
2.7772227e-08
4.652451e-08
2.7875635e-08
2.788655e-08
2.7772223e-08
2.7771782e-08
2.777193e-08
2.7772031e-08
2.7772096e-08
2.777214e-08
2.7772171e-08
2.7772193e-08
2.777221e-08
2.7772224e-08
2.7772234e-08
4.4692082e-08
2.7869099e-08
2.786416e-08
2.7772144e-08
2.7771819e-08
2.7771958e-08
2.7772052e-08
2.7772111e-08
2.7772152e-08
2.777218e-08
2.7772201e-08
2.7772217e-08
2.7772229e-08
2.7772238e-08
4.328984e-08
2.7860883e-08
2.7848084e-08
2.7772084e-08
2.7771846e-08
2.7771982e-08
2.7772069e-08
2.7772124e-08
2.7772162e-08
2.7772188e-08
2.7772208e-08
2.7772222e-08
2.7772233e-08
2.7772242e-08
4.2287998e-08
2.785125e-08
2.783668e-08
2.7772039e-08
2.7771872e-08
2.7772004e-08
2.7772083e-08
2.7772135e-08
2.777217e-08
2.7772195e-08
2.7772213e-08
2.7772227e-08
2.7772237e-08
2.7772246e-08
2.7772295e-08
2.7772295e-08
2.7772295e-08
2.7772295e-08
2.7772295e-08
2.7772295e-08
2.7772295e-08
2.7772295e-08
2.7772295e-08
2.7772295e-08
2.7772295e-08
2.7772295e-08
2.7772295e-08
2.7772295e-08
2.7772295e-08
2.7772295e-08
2.7772295e-08
2.7772295e-08
2.7772295e-08
2.7772295e-08
2.7772295e-08
2.7772295e-08
2.7772295e-08
2.7772295e-08
2.7772295e-08
2.7772295e-08
2.7772295e-08
2.7772295e-08
2.7772295e-08
2.7772295e-08
2.7772295e-08
2.7772295e-08
2.7772295e-08
2.7772295e-08
2.7772295e-08
2.7772295e-08
2.7772295e-08
2.7772295e-08
2.7772295e-08
2.7772295e-08
2.7772295e-08
2.7772295e-08
2.7772295e-08
2.7772295e-08
2.7772295e-08
2.7772295e-08
2.7772295e-08
2.7772295e-08
2.7772295e-08
2.7772295e-08
2.7772295e-08
2.7772295e-08
2.7772295e-08
2.7772295e-08
2.7772295e-08
2.7772294e-08
2.7772293e-08
2.777229e-08
2.7772295e-08
2.7772295e-08
2.7772295e-08
2.7772295e-08
2.7772295e-08
2.7772295e-08
2.7772295e-08
2.7772295e-08
2.7772295e-08
2.7772295e-08
2.7772294e-08
2.7772293e-08
2.777229e-08
2.7772279e-08
2.7772295e-08
2.7772295e-08
2.7772295e-08
2.7772295e-08
2.7772295e-08
2.7772295e-08
2.7772295e-08
2.7772295e-08
2.7772295e-08
2.7772295e-08
2.7772294e-08
2.7772293e-08
2.777229e-08
2.7772278e-08
2.7772295e-08
2.7772295e-08
2.7772295e-08
2.7772295e-08
2.7772295e-08
2.7772295e-08
2.7772295e-08
2.7772295e-08
2.7772295e-08
2.7772295e-08
2.7772294e-08
2.7772293e-08
2.777229e-08
2.7772277e-08
2.7772295e-08
2.7772295e-08
2.7772295e-08
2.7772295e-08
2.7772295e-08
2.7772295e-08
2.7772295e-08
2.7772295e-08
2.7772294e-08
2.7772293e-08
2.777229e-08
2.7772276e-08
2.7772295e-08
2.7772295e-08
2.7772295e-08
2.7772295e-08
2.7772295e-08
2.7772294e-08
2.7772293e-08
2.777229e-08
2.7772275e-08
2.7772295e-08
2.7772295e-08
2.7772294e-08
2.7772293e-08
2.777229e-08
2.7772274e-08
2.7772293e-08
2.7772289e-08
2.7772272e-08
)
;

boundaryField
{
    Side
    {
        type            empty;
    }
    Inlet
    {
        type            calculated;
        value           nonuniform List<scalar> 
15
(
2.7772295e-08
2.7772295e-08
3.9592188e-07
3.9592188e-07
3.9592188e-07
3.9592188e-07
3.9592188e-07
3.9592188e-07
3.9592188e-07
3.9592188e-07
3.9592188e-07
3.9592188e-07
3.9592188e-07
3.9592188e-07
3.9592188e-07
)
;
    }
    Airfoil
    {
        type            compressible::alphatWallFunction;
        value           nonuniform List<scalar> 0();
    }
    Outlet
    {
        type            zeroGradient;
    }
    Flap
    {
        type            compressible::alphatWallFunction;
        value           nonuniform List<scalar> 
32
(
1.3619894e-06
1.2642769e-06
1.1870666e-06
1.1255118e-06
1.0790467e-06
1.0440753e-06
1.0184597e-06
9.9987386e-07
9.8664381e-07
9.7948592e-07
9.7658122e-07
9.8053129e-07
9.9090811e-07
1.0109231e-06
1.9052042e-06
1.8360757e-06
1.7701237e-06
1.7069779e-06
1.6465783e-06
1.589783e-06
1.5366638e-06
1.4869102e-06
1.4408713e-06
9.9815858e-07
9.513086e-07
1.3726269e-05
1.411031e-05
1.4464481e-05
1.4795351e-05
1.5114941e-05
1.5431375e-05
1.5755112e-05
)
;
    }
    procBoundary3to2
    {
        type            processor;
        value           nonuniform List<scalar> 
113
(
2.7772295e-08
2.7772295e-08
2.2483206e-08
2.2483206e-08
2.3959249e-08
2.4391543e-08
2.6676274e-08
2.6438532e-08
2.810893e-08
2.8387262e-08
3.0230448e-08
3.0722549e-08
3.2116513e-08
3.2487249e-08
3.3427598e-08
3.3385772e-08
2.9749041e-08
2.9749041e-08
2.9683895e-08
2.762865e-08
2.7689011e-08
2.9683895e-08
2.9911791e-08
2.4970409e-08
2.729171e-08
2.7323863e-08
2.7563843e-08
2.7400729e-08
2.6792647e-08
2.5818916e-08
2.471277e-08
2.3763663e-08
2.3141794e-08
2.25918e-08
2.3453777e-08
2.7812888e-08
2.7812888e-08
2.7772261e-08
2.7772261e-08
2.7772255e-08
2.7772248e-08
2.7772248e-08
2.7772238e-08
2.7772238e-08
2.7772226e-08
2.7772226e-08
2.7772208e-08
2.7772183e-08
2.7772183e-08
2.7772145e-08
2.7772145e-08
2.7772084e-08
2.7772084e-08
2.7771877e-08
2.7771877e-08
2.776705e-08
2.776705e-08
2.7719792e-08
2.7719792e-08
2.7689011e-08
2.7772295e-08
2.7772295e-08
2.7772295e-08
2.7772295e-08
2.7772295e-08
2.7772295e-08
2.7772295e-08
2.7772295e-08
2.7772295e-08
2.7772294e-08
2.7772293e-08
2.7772293e-08
2.7772291e-08
2.7772283e-08
2.7772283e-08
4.1605667e-08
2.7839109e-08
2.7829195e-08
2.7772018e-08
2.7771895e-08
2.777202e-08
2.7772095e-08
2.7772144e-08
2.7772177e-08
2.7772201e-08
2.7772218e-08
2.7772231e-08
2.7772241e-08
2.7772249e-08
2.7772295e-08
2.7772295e-08
2.7772295e-08
2.7772295e-08
2.7772295e-08
2.7772295e-08
2.7772295e-08
2.7772295e-08
2.7772295e-08
2.7772295e-08
2.7772295e-08
2.7772295e-08
2.7772295e-08
2.7772295e-08
2.7772295e-08
2.7772295e-08
2.7772295e-08
2.7772295e-08
2.7772294e-08
2.7772294e-08
2.7772293e-08
2.7772291e-08
2.777228e-08
2.777228e-08
)
;
    }
    procBoundary3to4
    {
        type            processor;
        value           nonuniform List<scalar> 
142
(
2.7771148e-08
2.7770761e-08
2.7771243e-08
2.7770625e-08
2.7770491e-08
2.777035e-08
2.7770203e-08
2.7770038e-08
2.7769844e-08
2.7769623e-08
2.7769373e-08
2.7769083e-08
2.7768775e-08
2.776838e-08
2.77678e-08
2.7766431e-08
2.7748421e-08
2.7772238e-08
2.7772226e-08
2.7772226e-08
2.7772227e-08
2.777221e-08
2.777221e-08
2.7772187e-08
2.7772187e-08
2.7772187e-08
2.7772154e-08
2.7772154e-08
2.7772155e-08
2.7772104e-08
2.7772104e-08
2.7772107e-08
2.7772023e-08
2.7772023e-08
2.7772028e-08
2.7771875e-08
2.7771875e-08
2.77715e-08
2.77715e-08
2.7772266e-08
2.7772266e-08
2.7772266e-08
2.7772284e-08
2.7772284e-08
2.7772284e-08
2.7772284e-08
2.7772261e-08
2.7772261e-08
2.7772261e-08
2.7772255e-08
2.7772255e-08
2.7772255e-08
2.7772248e-08
2.7772248e-08
2.7772248e-08
2.7772238e-08
2.7772238e-08
2.7772238e-08
2.7771612e-08
2.7771651e-08
2.7771684e-08
2.7771717e-08
2.7771148e-08
2.3850087e-08
2.1862255e-08
1.9741253e-08
1.7624292e-08
1.5599677e-08
1.372075e-08
1.2075902e-08
1.0671346e-08
1.0080919e-08
1.0144096e-08
1.1268876e-08
1.156651e-08
1.1107339e-08
1.0787012e-08
2.5283109e-08
2.631605e-08
2.7009522e-08
2.7544477e-08
2.7544477e-08
2.7680626e-08
2.7748421e-08
2.7772284e-08
2.7772295e-08
2.7772295e-08
2.7772295e-08
2.7772295e-08
2.7772295e-08
2.7772295e-08
2.7772295e-08
2.7772295e-08
2.7772295e-08
2.7772295e-08
2.7772295e-08
2.7772295e-08
2.7772295e-08
2.7772295e-08
2.7772294e-08
2.7772294e-08
2.7772293e-08
2.7772293e-08
2.7772293e-08
2.7772291e-08
2.7772291e-08
2.7772291e-08
2.7772291e-08
2.7772291e-08
2.7772284e-08
6.1373281e-08
2.7874684e-08
2.8131086e-08
2.7772985e-08
2.7771555e-08
2.777173e-08
2.7771888e-08
2.7771988e-08
2.7772054e-08
2.77721e-08
2.7772135e-08
2.7772161e-08
2.7772182e-08
2.7772197e-08
2.7772295e-08
2.7772295e-08
2.7772295e-08
2.7772295e-08
2.7772295e-08
2.7772295e-08
2.7772295e-08
2.7772295e-08
2.7772295e-08
2.7772295e-08
2.7772295e-08
2.7772295e-08
2.7772295e-08
2.7772294e-08
2.7772294e-08
2.7772293e-08
2.7772289e-08
2.7772271e-08
)
;
    }
}


// ************************************************************************* //
