/*--------------------------------*- C++ -*----------------------------------*\
| =========                 |                                                 |
| \\      /  F ield         | OpenFOAM: The Open Source CFD Toolbox           |
|  \\    /   O peration     | Version:  2206                                  |
|   \\  /    A nd           | Website:  www.openfoam.com                      |
|    \\/     M anipulation  |                                                 |
\*---------------------------------------------------------------------------*/
FoamFile
{
    version     2.0;
    format      ascii;
    arch        "LSB;label=32;scalar=64";
    class       volScalarField;
    location    "0.01";
    object      nut;
}
// * * * * * * * * * * * * * * * * * * * * * * * * * * * * * * * * * * * * * //

dimensions      [0 2 -1 0 0 0 0];

internalField   nonuniform List<scalar> 
1396
(
2.6213046e-08
2.7436933e-08
2.7879145e-08
2.7866716e-08
2.7778437e-08
2.7757079e-08
2.7760346e-08
2.7764557e-08
2.7766721e-08
2.7767571e-08
2.7767892e-08
2.6811393e-08
2.7483627e-08
2.7823053e-08
2.7856893e-08
2.7784234e-08
2.7759001e-08
2.7760485e-08
2.776449e-08
2.7766832e-08
2.7767415e-08
2.7767659e-08
2.6336788e-08
2.7281877e-08
2.7753771e-08
2.7827794e-08
2.7783104e-08
2.7759614e-08
2.7760171e-08
2.7764363e-08
2.7766668e-08
2.7767201e-08
2.7767417e-08
2.7290082e-08
2.7411369e-08
2.7735559e-08
2.7811865e-08
2.7783188e-08
2.7760766e-08
2.7760266e-08
2.7764383e-08
2.7766481e-08
2.7766918e-08
2.7767115e-08
2.746519e-08
2.7391027e-08
2.7690914e-08
2.7781029e-08
2.7775368e-08
2.7760295e-08
2.776026e-08
2.7764312e-08
2.7766206e-08
2.7766547e-08
2.776673e-08
2.8353081e-08
2.7639097e-08
2.7698303e-08
2.7761834e-08
2.7765636e-08
2.7759303e-08
2.776039e-08
2.776417e-08
2.7765801e-08
2.7766014e-08
2.7766168e-08
2.8463585e-08
2.7732664e-08
2.7691672e-08
2.7743742e-08
2.7757351e-08
2.7757906e-08
2.776048e-08
2.776387e-08
2.7765185e-08
2.7765236e-08
2.7765281e-08
2.9131875e-08
2.7901614e-08
2.7689833e-08
2.7727263e-08
2.7751056e-08
2.7756746e-08
2.7760362e-08
2.7763299e-08
2.776419e-08
2.7763971e-08
2.7763816e-08
2.932192e-08
2.7989351e-08
2.7702085e-08
2.7723869e-08
2.7749351e-08
2.7756359e-08
2.7759985e-08
2.7762333e-08
2.7762749e-08
2.7761844e-08
2.7761271e-08
2.9710733e-08
2.8088142e-08
2.7722823e-08
2.7721497e-08
2.7746674e-08
2.7755219e-08
2.775903e-08
2.7760729e-08
2.776043e-08
2.7758348e-08
2.7756801e-08
2.9787223e-08
2.8170487e-08
2.7779085e-08
2.7734e-08
2.7746733e-08
2.775391e-08
2.775764e-08
2.7758206e-08
2.7756621e-08
2.7752634e-08
2.7749107e-08
2.9945014e-08
2.8200612e-08
2.780677e-08
2.7738293e-08
2.7744125e-08
2.7751602e-08
2.7755828e-08
2.7755179e-08
2.775078e-08
2.7743648e-08
2.7736486e-08
2.9921364e-08
2.8249932e-08
2.7845837e-08
2.7749067e-08
2.7742557e-08
2.7748897e-08
2.7753466e-08
2.7750544e-08
2.7742478e-08
2.7730044e-08
2.7716482e-08
2.8238963e-08
2.7846089e-08
2.775339e-08
2.7740428e-08
2.7746071e-08
2.7749219e-08
2.7743884e-08
2.7730544e-08
2.7709538e-08
2.7684399e-08
2.7767734e-08
2.7767427e-08
2.7767158e-08
2.7766746e-08
2.776618e-08
2.7765271e-08
2.7763744e-08
2.7761063e-08
2.7756243e-08
2.7747576e-08
2.7732527e-08
2.7707776e-08
2.7667178e-08
2.7602025e-08
2.7767485e-08
2.7767106e-08
2.7766736e-08
2.7766107e-08
2.7765117e-08
2.7763326e-08
2.7759993e-08
2.7753687e-08
2.7741837e-08
2.772015e-08
2.7682591e-08
2.7621437e-08
2.7524897e-08
2.7382237e-08
2.7767281e-08
2.7766816e-08
2.7766288e-08
2.7765304e-08
2.7763542e-08
2.7760094e-08
2.7753314e-08
2.7740152e-08
2.7715332e-08
2.7670614e-08
2.7595399e-08
2.7477634e-08
2.7302657e-08
2.7061214e-08
2.7767139e-08
2.7766582e-08
2.7765846e-08
2.7764371e-08
2.7761488e-08
2.7755574e-08
2.7743636e-08
2.7720273e-08
2.7676561e-08
2.7599461e-08
2.7473587e-08
2.7283494e-08
2.701438e-08
2.6663135e-08
2.7767101e-08
2.7766447e-08
2.7765499e-08
2.7763508e-08
2.7759408e-08
2.7750735e-08
2.77329e-08
2.7697868e-08
2.7632805e-08
2.7520061e-08
2.7340253e-08
2.7076062e-08
2.6715138e-08
2.6261306e-08
2.776707e-08
2.7766407e-08
2.7765343e-08
2.7763e-08
2.7757924e-08
2.7746869e-08
2.7723859e-08
2.7678322e-08
2.7593974e-08
2.7449187e-08
2.7221436e-08
2.6892492e-08
2.6452949e-08
2.5913345e-08
2.7767084e-08
2.7766417e-08
2.7765314e-08
2.7762835e-08
2.7757307e-08
2.7745008e-08
2.771884e-08
2.766639e-08
2.7568603e-08
2.7400662e-08
2.713751e-08
2.6760025e-08
2.6261328e-08
2.5655776e-08
2.7767163e-08
2.7766523e-08
2.7765481e-08
2.7763115e-08
2.7757731e-08
2.7745465e-08
2.7718768e-08
2.7664263e-08
2.7561155e-08
2.7382247e-08
2.7099862e-08
2.6693402e-08
2.6156645e-08
2.5506646e-08
2.7767304e-08
2.7766719e-08
2.7765811e-08
2.776376e-08
2.7759032e-08
2.7748009e-08
2.7723392e-08
2.7671855e-08
2.7572075e-08
2.7395356e-08
2.7111569e-08
2.6697574e-08
2.6145496e-08
2.5472612e-08
2.7767495e-08
2.7766979e-08
2.776624e-08
2.7764614e-08
2.7760872e-08
2.7751972e-08
2.7731534e-08
2.7687399e-08
2.7599207e-08
2.7438149e-08
2.7172165e-08
2.6774615e-08
2.6233232e-08
2.5562717e-08
2.7767725e-08
2.7767275e-08
2.7766698e-08
2.77655e-08
2.7762806e-08
2.7756328e-08
2.7741038e-08
2.7706841e-08
2.763579e-08
2.7500683e-08
2.726868e-08
2.6909337e-08
2.6403789e-08
2.5761578e-08
2.7767979e-08
2.7767583e-08
2.7767137e-08
2.7766292e-08
2.7764503e-08
2.7760234e-08
2.7749951e-08
2.7726139e-08
2.7674485e-08
2.7571435e-08
2.7385621e-08
2.7084048e-08
2.6640218e-08
2.6054727e-08
2.7768284e-08
2.7767937e-08
2.7767586e-08
2.7766996e-08
2.7765864e-08
2.7763257e-08
2.7756926e-08
2.7741775e-08
2.7707364e-08
2.7634822e-08
2.7496081e-08
2.7257385e-08
2.6884966e-08
2.6369012e-08
2.7768386e-08
2.776806e-08
2.7767756e-08
2.7767289e-08
2.7766525e-08
2.7764942e-08
2.7761273e-08
2.7752613e-08
2.7732719e-08
2.7689867e-08
2.7605402e-08
2.7454818e-08
2.7211277e-08
2.6860968e-08
2.7769187e-08
2.7768933e-08
2.7768687e-08
2.7768414e-08
2.7768092e-08
2.7767607e-08
2.7766793e-08
2.7764932e-08
2.7760396e-08
2.7749325e-08
2.7722195e-08
2.7657858e-08
2.7524948e-08
2.7293973e-08
2.7769563e-08
2.7769339e-08
2.7769115e-08
2.7768879e-08
2.7768621e-08
2.7768299e-08
2.7767906e-08
2.7767192e-08
2.776556e-08
2.776132e-08
2.774996e-08
2.7720182e-08
2.7653288e-08
2.7513606e-08
2.7769887e-08
2.7769682e-08
2.7769479e-08
2.7769262e-08
2.7769038e-08
2.7768775e-08
2.7768483e-08
2.7768098e-08
2.7767471e-08
2.7766096e-08
2.7762307e-08
2.7751532e-08
2.7725049e-08
2.7658058e-08
2.7770145e-08
2.7769964e-08
2.7769778e-08
2.7769588e-08
2.7769368e-08
2.7769128e-08
2.7768873e-08
2.7768577e-08
2.7768208e-08
2.7767648e-08
2.7766479e-08
2.7763145e-08
2.7753549e-08
2.7725454e-08
2.7770393e-08
2.7770232e-08
2.7770074e-08
2.7769906e-08
2.7769735e-08
2.7769532e-08
2.7769304e-08
2.7769044e-08
2.7768745e-08
2.7768376e-08
2.7767845e-08
2.7766688e-08
2.7763546e-08
2.7752999e-08
2.7770591e-08
2.7770437e-08
2.777029e-08
2.7770132e-08
2.7769972e-08
2.7769786e-08
2.7769574e-08
2.7769335e-08
2.7769062e-08
2.7768749e-08
2.7768355e-08
2.7767768e-08
2.7766598e-08
2.7762958e-08
2.7434574e-08
2.7011478e-08
2.6274686e-08
2.5226703e-08
2.4012936e-08
2.2791887e-08
2.1671834e-08
2.0780722e-08
2.0415125e-08
2.028482e-08
2.1000443e-08
2.0990058e-08
2.1335072e-08
2.5526443e-08
2.706992e-08
2.6380505e-08
2.5363088e-08
2.4137185e-08
2.2865789e-08
2.1653209e-08
2.0610285e-08
1.9836818e-08
1.9726396e-08
1.9746599e-08
2.0444492e-08
2.0155061e-08
2.0554803e-08
2.5213602e-08
2.6566233e-08
2.5635887e-08
2.4441474e-08
2.3149379e-08
2.1873858e-08
2.0702932e-08
1.9764066e-08
1.9107225e-08
1.9235618e-08
1.9448384e-08
1.9940972e-08
1.9310322e-08
1.982313e-08
2.4533157e-08
2.5987808e-08
2.4882881e-08
2.3602769e-08
2.2294388e-08
2.1037093e-08
1.9916345e-08
1.9088428e-08
1.8523884e-08
1.8855094e-08
1.9227086e-08
1.9441487e-08
1.8496715e-08
1.9143696e-08
2.3852599e-08
2.543905e-08
2.4235925e-08
2.2923494e-08
2.1617011e-08
2.0384011e-08
1.9305342e-08
1.8569025e-08
1.8068578e-08
1.8573928e-08
1.9061132e-08
1.9018622e-08
1.7881352e-08
1.8595262e-08
2.3218504e-08
2.4985841e-08
2.3733682e-08
2.2408488e-08
2.1105922e-08
1.9891353e-08
1.8837673e-08
1.8159469e-08
1.7734819e-08
1.8330851e-08
1.8867996e-08
1.8624316e-08
1.7385443e-08
1.8128246e-08
2.2528957e-08
2.4659453e-08
2.3381741e-08
2.2047197e-08
2.0742488e-08
1.9532586e-08
1.8479831e-08
1.7778156e-08
1.7473255e-08
1.8104511e-08
1.86335e-08
1.8260368e-08
1.6975938e-08
1.7721371e-08
2.1881917e-08
2.4469197e-08
2.3173135e-08
2.1825059e-08
2.0507178e-08
1.9282901e-08
1.8211486e-08
1.7446653e-08
1.7202088e-08
1.783268e-08
1.8361102e-08
1.7929519e-08
1.6611312e-08
1.7343688e-08
2.1276973e-08
2.4416476e-08
2.31021e-08
2.1733185e-08
2.0388709e-08
1.9129131e-08
1.8008745e-08
1.715454e-08
1.6885168e-08
1.7489817e-08
1.8044325e-08
1.7654327e-08
1.6283407e-08
1.6963964e-08
2.0755467e-08
2.4512184e-08
2.3183204e-08
2.1789793e-08
2.0409583e-08
1.9099177e-08
1.7906568e-08
1.6939694e-08
1.6559973e-08
1.7114134e-08
1.7704231e-08
1.7485745e-08
1.6073959e-08
1.66624e-08
2.0098522e-08
2.4742239e-08
2.3401402e-08
2.1980419e-08
2.0556337e-08
1.9181764e-08
1.7904912e-08
1.6798348e-08
1.622727e-08
1.666153e-08
1.72829e-08
1.7310665e-08
1.5921968e-08
1.6354044e-08
1.9435339e-08
2.5101264e-08
2.3767562e-08
2.2323817e-08
2.0855117e-08
1.9410691e-08
1.803744e-08
1.6792021e-08
1.5956073e-08
1.6200326e-08
1.6785985e-08
1.7132213e-08
1.5915785e-08
1.6080508e-08
1.8775508e-08
2.5501089e-08
2.4193743e-08
2.2730563e-08
2.1219759e-08
1.9708538e-08
1.8237463e-08
1.6881525e-08
1.5736238e-08
1.5712019e-08
1.618418e-08
1.6753649e-08
1.593567e-08
1.5721059e-08
1.8177663e-08
2.6257343e-08
2.5109934e-08
2.3704034e-08
2.2180944e-08
2.0600487e-08
1.9010175e-08
1.7514279e-08
1.5969851e-08
1.5577852e-08
1.5733127e-08
1.653627e-08
1.6308054e-08
1.5825541e-08
1.7469601e-08
2.7772251e-08
2.7772235e-08
2.7772235e-08
2.7772235e-08
2.7772209e-08
2.7772209e-08
2.7772211e-08
2.7772212e-08
2.7772172e-08
2.7772173e-08
2.7772174e-08
2.7772175e-08
2.7772177e-08
2.7772178e-08
2.7772113e-08
2.7772113e-08
2.7772116e-08
2.7772117e-08
2.7772119e-08
2.7772121e-08
2.7772125e-08
2.7772127e-08
2.7772012e-08
2.7772013e-08
2.7772014e-08
2.7772015e-08
2.777202e-08
2.7772024e-08
2.7772027e-08
2.7772031e-08
2.7772038e-08
2.7772042e-08
2.7771821e-08
2.7771819e-08
2.7771819e-08
2.7771821e-08
2.7771823e-08
2.7771833e-08
2.7771839e-08
2.7771846e-08
2.7771854e-08
2.7771863e-08
2.7771873e-08
2.7771885e-08
2.777138e-08
2.7771367e-08
2.7771359e-08
2.7771357e-08
2.777136e-08
2.7771368e-08
2.777138e-08
2.7771403e-08
2.7771421e-08
2.7771441e-08
2.7771463e-08
2.7771489e-08
2.7771516e-08
2.7770024e-08
2.7769945e-08
2.7769884e-08
2.7769848e-08
2.776984e-08
2.7769849e-08
2.7769877e-08
2.7769924e-08
2.7769988e-08
2.7770073e-08
2.7770143e-08
2.7770223e-08
2.777033e-08
2.7770321e-08
2.7772292e-08
2.7772292e-08
2.7772291e-08
2.7772291e-08
2.7772288e-08
2.7772288e-08
2.7772287e-08
2.7772287e-08
2.7772286e-08
2.7772286e-08
2.7772282e-08
2.7772282e-08
2.7772282e-08
2.7772282e-08
2.7772281e-08
2.777228e-08
2.777228e-08
2.7772279e-08
2.7772274e-08
2.7772274e-08
2.7772274e-08
2.7772274e-08
2.7772274e-08
2.7772274e-08
2.7772273e-08
2.7772272e-08
2.7772271e-08
2.7772271e-08
2.7772264e-08
2.7772265e-08
2.7772264e-08
2.7772265e-08
2.7772264e-08
2.7772265e-08
2.7772264e-08
2.7772263e-08
2.7772262e-08
2.7772261e-08
2.777226e-08
2.7772259e-08
2.7772252e-08
2.7772251e-08
2.7772252e-08
2.7772251e-08
2.7772252e-08
2.7772251e-08
2.7772251e-08
2.7772251e-08
2.777225e-08
2.7772249e-08
2.7772247e-08
2.7772246e-08
2.7772244e-08
2.7772243e-08
2.7772234e-08
2.7772234e-08
2.7772234e-08
2.7772234e-08
2.7772233e-08
2.7772233e-08
2.7772234e-08
2.7772233e-08
2.7772231e-08
2.7772228e-08
2.7772226e-08
2.7772224e-08
2.7772222e-08
2.7772221e-08
2.7772209e-08
2.7772208e-08
2.7772209e-08
2.7772208e-08
2.7772208e-08
2.7772208e-08
2.7772207e-08
2.7772206e-08
2.7772202e-08
2.7772199e-08
2.7772195e-08
2.7772192e-08
2.7772189e-08
2.7772186e-08
2.7772171e-08
2.7772172e-08
2.777217e-08
2.777217e-08
2.7772171e-08
2.7772169e-08
2.7772168e-08
2.7772163e-08
2.7772157e-08
2.7772152e-08
2.7772146e-08
2.7772141e-08
2.7772135e-08
2.777213e-08
2.7772113e-08
2.7772112e-08
2.7772112e-08
2.7772111e-08
2.777211e-08
2.7772109e-08
2.7772102e-08
2.7772091e-08
2.7772082e-08
2.7772071e-08
2.7772059e-08
2.7772044e-08
2.7772024e-08
2.7771999e-08
2.7772012e-08
2.7772012e-08
2.777201e-08
2.7772011e-08
2.7772006e-08
2.7772e-08
2.7771982e-08
2.7771968e-08
2.7771959e-08
2.777196e-08
2.7771939e-08
2.7771736e-08
2.7771017e-08
2.7769941e-08
2.7771823e-08
2.7771821e-08
2.7771816e-08
2.7771813e-08
2.7771801e-08
2.7771769e-08
2.777172e-08
2.777167e-08
2.7771553e-08
2.7771501e-08
2.7771592e-08
2.7767884e-08
2.7756314e-08
2.7744662e-08
2.7771393e-08
2.777139e-08
2.777138e-08
2.7771379e-08
2.777134e-08
2.7771249e-08
2.777108e-08
2.7770367e-08
2.7768574e-08
2.7772194e-08
2.7807039e-08
2.7903617e-08
2.7992107e-08
2.7950581e-08
2.7770082e-08
2.7770059e-08
2.777012e-08
2.7770372e-08
2.7771487e-08
2.777516e-08
2.7785535e-08
2.7803241e-08
2.7809195e-08
2.7865795e-08
2.8326024e-08
2.9204675e-08
2.8468366e-08
2.7079723e-08
2.7624579e-08
2.7561043e-08
2.7476168e-08
2.7191165e-08
2.6617409e-08
2.583681e-08
2.501567e-08
2.4321021e-08
2.3948882e-08
2.3569312e-08
2.4409019e-08
2.7952266e-08
2.7609414e-08
2.767575e-08
2.7572459e-08
2.7376893e-08
2.6924148e-08
2.6192381e-08
2.5305707e-08
2.4437249e-08
2.373343e-08
2.3466351e-08
2.3187133e-08
2.4020396e-08
2.914903e-08
2.7790722e-08
2.7712203e-08
2.7678749e-08
2.7521663e-08
2.7208998e-08
2.6604955e-08
2.573653e-08
2.477162e-08
2.387539e-08
2.3184004e-08
2.3028098e-08
2.2847656e-08
2.3713862e-08
2.8567963e-08
2.7751739e-08
2.7716063e-08
2.7635668e-08
2.7424796e-08
2.6978979e-08
2.6229704e-08
2.525212e-08
2.4235108e-08
2.3334684e-08
2.2672079e-08
2.2633777e-08
2.2515378e-08
2.3439917e-08
2.8603205e-08
2.7740643e-08
2.7694595e-08
2.7571771e-08
2.7271319e-08
2.6695429e-08
2.5812696e-08
2.4754762e-08
2.3707198e-08
2.2827074e-08
2.2209738e-08
2.2299533e-08
2.2281618e-08
2.3175843e-08
2.8039734e-08
2.7731286e-08
2.7661139e-08
2.747558e-08
2.7073497e-08
2.636424e-08
2.5368548e-08
2.4255056e-08
2.3194767e-08
2.2355807e-08
2.1794689e-08
2.2016366e-08
2.2092999e-08
2.2901801e-08
2.7494016e-08
2.7712547e-08
2.7605748e-08
2.734724e-08
2.6832421e-08
2.5993996e-08
2.4909577e-08
2.375973e-08
2.2700835e-08
2.1919881e-08
2.1418232e-08
2.1779824e-08
2.1914159e-08
2.2616942e-08
2.7202379e-08
2.7682574e-08
2.7529558e-08
2.7186965e-08
2.6553456e-08
2.5599398e-08
2.4450839e-08
2.3281372e-08
2.2237378e-08
2.1530829e-08
2.1092974e-08
2.159467e-08
2.1777132e-08
2.2331887e-08
2.656248e-08
2.7638318e-08
2.7427896e-08
2.698958e-08
2.6236204e-08
2.5184157e-08
2.3988455e-08
2.2810271e-08
2.1790682e-08
2.1169688e-08
2.0805972e-08
2.141842e-08
2.1614667e-08
2.2040065e-08
2.6100828e-08
2.7586294e-08
2.7312921e-08
2.6777484e-08
2.5913309e-08
2.4783584e-08
2.3558732e-08
2.2382005e-08
2.1391206e-08
2.0853799e-08
2.053908e-08
2.1234911e-08
2.1410379e-08
2.1724849e-08
2.5211505e-08
2.7770779e-08
2.7770871e-08
2.7770997e-08
2.7771069e-08
2.5887354e-08
2.4655915e-08
2.3223344e-08
2.1697646e-08
2.0142839e-08
1.8601577e-08
1.7150472e-08
1.5831462e-08
1.5279388e-08
1.5107426e-08
1.6292967e-08
1.6335394e-08
1.5717114e-08
1.7362972e-08
2.541526e-08
2.410647e-08
2.2655367e-08
2.1134201e-08
1.9594016e-08
1.8075501e-08
1.6661412e-08
1.5383725e-08
1.4829855e-08
1.4816251e-08
1.5969443e-08
1.6098908e-08
1.5559218e-08
1.6830302e-08
2.6640775e-08
2.6299053e-08
2.7118112e-08
2.6929169e-08
2.744572e-08
2.7339406e-08
2.763074e-08
2.7715637e-08
2.7772288e-08
2.7772282e-08
2.7772288e-08
2.7772282e-08
2.7772275e-08
2.7772288e-08
2.7772282e-08
2.7772275e-08
2.7772265e-08
2.7772288e-08
2.7772283e-08
2.7772275e-08
2.7772266e-08
2.7772253e-08
2.7772235e-08
2.7772288e-08
2.7772282e-08
2.7772275e-08
2.7772266e-08
2.7772253e-08
2.7772235e-08
2.777221e-08
2.7772288e-08
2.7772282e-08
2.7772275e-08
2.7772266e-08
2.7772253e-08
2.7772236e-08
2.777221e-08
2.7772173e-08
2.7772289e-08
2.7772283e-08
2.7772276e-08
2.7772266e-08
2.7772253e-08
2.7772236e-08
2.777221e-08
2.7772173e-08
2.7772113e-08
2.7772289e-08
2.7772284e-08
2.7772276e-08
2.7772267e-08
2.7772255e-08
2.7772237e-08
2.7772212e-08
2.7772175e-08
2.7772113e-08
2.7771942e-08
2.777229e-08
2.7772285e-08
2.7772278e-08
2.7772268e-08
2.7772256e-08
2.7772239e-08
2.7772214e-08
2.7772177e-08
2.7772115e-08
2.7771952e-08
2.7768929e-08
2.7772291e-08
2.7772285e-08
2.7772278e-08
2.7772269e-08
2.7772258e-08
2.7772241e-08
2.7772218e-08
2.7772182e-08
2.7772123e-08
2.777196e-08
2.7768612e-08
2.7741335e-08
2.7772322e-08
2.7772322e-08
2.7772322e-08
2.7772322e-08
2.7772322e-08
2.7772322e-08
2.7772322e-08
2.7772322e-08
2.7772322e-08
2.7772322e-08
2.7772321e-08
2.7772321e-08
2.7772321e-08
2.7772322e-08
2.7772322e-08
2.7772322e-08
2.7772322e-08
2.7772322e-08
2.7772322e-08
2.7772321e-08
2.7772321e-08
2.7772321e-08
2.777232e-08
2.7772318e-08
2.7772322e-08
2.7772322e-08
2.7772321e-08
2.7772321e-08
2.7772321e-08
2.777232e-08
2.7772318e-08
2.777231e-08
2.7772321e-08
2.7772321e-08
2.7772321e-08
2.777232e-08
2.7772318e-08
2.777231e-08
2.7772321e-08
2.777232e-08
2.7772318e-08
2.777231e-08
2.777232e-08
2.7772318e-08
2.777231e-08
2.7772318e-08
2.777231e-08
2.7772318e-08
2.777231e-08
2.777231e-08
2.777231e-08
2.777231e-08
2.777231e-08
4.7253416e-08
2.7706638e-08
2.7957202e-08
2.7772032e-08
2.7771637e-08
2.7771825e-08
2.7771963e-08
2.7772052e-08
2.7772112e-08
2.7772152e-08
2.7772182e-08
2.7772205e-08
2.7772223e-08
2.7772237e-08
4.4841239e-08
2.7736323e-08
2.7908946e-08
2.7772014e-08
2.7771704e-08
2.777188e-08
2.7772003e-08
2.7772081e-08
2.7772134e-08
2.7772172e-08
2.7772198e-08
2.7772218e-08
2.7772234e-08
2.7772247e-08
4.3001236e-08
2.7760814e-08
2.7876599e-08
2.7771993e-08
2.7771758e-08
2.7771923e-08
2.7772033e-08
2.7772104e-08
2.7772152e-08
2.7772186e-08
2.7772211e-08
2.7772229e-08
2.7772243e-08
2.7772254e-08
4.1542005e-08
2.777395e-08
2.7853862e-08
2.7771972e-08
2.7771803e-08
2.7771957e-08
2.7772058e-08
2.7772123e-08
2.7772167e-08
2.7772197e-08
2.777222e-08
2.7772237e-08
2.777225e-08
2.7772261e-08
4.040801e-08
2.7780928e-08
2.7837812e-08
2.777195e-08
2.7771841e-08
2.7771985e-08
2.7772078e-08
2.7772138e-08
2.7772178e-08
2.7772207e-08
2.7772228e-08
2.7772243e-08
2.7772255e-08
2.7772265e-08
3.9526161e-08
2.7783636e-08
2.7826303e-08
2.7771932e-08
2.777187e-08
2.7772009e-08
2.7772095e-08
2.7772151e-08
2.7772188e-08
2.7772215e-08
2.7772234e-08
2.7772249e-08
2.777226e-08
2.7772269e-08
3.8884218e-08
2.778275e-08
2.7818144e-08
2.7771919e-08
2.7771896e-08
2.7772031e-08
2.777211e-08
2.7772162e-08
2.7772197e-08
2.7772222e-08
2.777224e-08
2.7772254e-08
2.7772264e-08
2.7772272e-08
2.7772322e-08
2.7772322e-08
2.7772322e-08
2.7772322e-08
2.7772322e-08
2.7772322e-08
2.7772322e-08
2.7772322e-08
2.7772322e-08
2.7772322e-08
2.7772322e-08
2.7772322e-08
2.7772322e-08
2.7772322e-08
2.7772322e-08
2.7772322e-08
2.7772322e-08
2.7772322e-08
2.7772322e-08
2.7772322e-08
2.7772322e-08
2.7772322e-08
2.7772322e-08
2.7772322e-08
2.7772322e-08
2.7772322e-08
2.7772322e-08
2.7772322e-08
2.7772322e-08
2.7772322e-08
2.7772322e-08
2.7772322e-08
2.7772322e-08
2.7772322e-08
2.7772322e-08
2.7772322e-08
2.7772322e-08
2.7772322e-08
2.7772322e-08
2.7772322e-08
2.7772322e-08
2.7772322e-08
2.7772322e-08
2.7772321e-08
2.7772321e-08
2.7772322e-08
2.7772322e-08
2.7772322e-08
2.7772322e-08
2.7772322e-08
2.7772322e-08
2.7772322e-08
2.7772322e-08
2.7772321e-08
2.7772321e-08
2.7772321e-08
2.777232e-08
2.7772317e-08
2.7772322e-08
2.7772322e-08
2.7772322e-08
2.7772322e-08
2.7772322e-08
2.7772322e-08
2.7772322e-08
2.7772322e-08
2.7772321e-08
2.7772321e-08
2.7772321e-08
2.777232e-08
2.7772317e-08
2.7772306e-08
2.7772322e-08
2.7772322e-08
2.7772322e-08
2.7772322e-08
2.7772322e-08
2.7772322e-08
2.7772322e-08
2.7772322e-08
2.7772321e-08
2.7772321e-08
2.7772321e-08
2.777232e-08
2.7772317e-08
2.7772305e-08
2.7772322e-08
2.7772322e-08
2.7772322e-08
2.7772322e-08
2.7772322e-08
2.7772322e-08
2.7772322e-08
2.7772322e-08
2.7772321e-08
2.7772321e-08
2.7772321e-08
2.777232e-08
2.7772317e-08
2.7772304e-08
2.7772322e-08
2.7772322e-08
2.7772322e-08
2.7772322e-08
2.7772322e-08
2.7772322e-08
2.7772321e-08
2.7772321e-08
2.7772321e-08
2.777232e-08
2.7772316e-08
2.7772303e-08
2.7772322e-08
2.7772322e-08
2.7772322e-08
2.7772321e-08
2.7772321e-08
2.7772321e-08
2.7772319e-08
2.7772316e-08
2.7772302e-08
2.7772321e-08
2.7772321e-08
2.7772321e-08
2.7772319e-08
2.7772316e-08
2.77723e-08
2.7772319e-08
2.7772316e-08
2.7772299e-08
)
;

boundaryField
{
    Side
    {
        type            empty;
    }
    Inlet
    {
        type            inletOutlet;
        inletValue      uniform 3.9592226e-07;
        value           nonuniform List<scalar> 
15
(
2.7772322e-08
2.7772322e-08
3.9592226e-07
3.9592226e-07
3.9592226e-07
3.9592226e-07
3.9592226e-07
3.9592226e-07
3.9592226e-07
3.9592226e-07
3.9592226e-07
3.9592226e-07
3.9592226e-07
3.9592226e-07
3.9592226e-07
)
;
    }
    Airfoil
    {
        type            nutUSpaldingWallFunction;
        value           nonuniform List<scalar> 0();
    }
    Outlet
    {
        type            zeroGradient;
    }
    Flap
    {
        type            nutUSpaldingWallFunction;
        value           nonuniform List<scalar> 
32
(
1.4596911e-06
1.3973729e-06
1.3448829e-06
1.3027433e-06
1.2707856e-06
1.249352e-06
1.2378964e-06
1.2358319e-06
1.2422176e-06
1.2573896e-06
1.2804126e-06
1.3111933e-06
1.3489814e-06
1.3938599e-06
1.7828565e-06
1.7406716e-06
1.6997059e-06
1.6618812e-06
1.6261683e-06
1.5922208e-06
1.5610626e-06
1.5326695e-06
1.5066882e-06
1.3925559e-06
1.3494119e-06
9.2370064e-06
9.7984654e-06
1.0303378e-05
1.0761814e-05
1.1179754e-05
1.1564442e-05
1.1919113e-05
)
;
    }
    procBoundary3to2
    {
        type            processor;
        value           nonuniform List<scalar> 
113
(
2.7772322e-08
2.7772322e-08
2.3750843e-08
2.3750843e-08
2.507836e-08
2.542024e-08
2.7649228e-08
2.7287967e-08
2.8915028e-08
2.9114227e-08
3.0908849e-08
3.1311073e-08
3.2647501e-08
3.2958597e-08
3.3873062e-08
3.3823706e-08
2.999538e-08
2.999538e-08
2.9405808e-08
2.8206095e-08
2.7829676e-08
2.9405808e-08
3.0133324e-08
2.513552e-08
2.7389509e-08
2.7345496e-08
2.7575878e-08
2.7482968e-08
2.7060777e-08
2.6381658e-08
2.5608092e-08
2.4940967e-08
2.4493526e-08
2.4080464e-08
2.4837735e-08
2.9807952e-08
2.9807952e-08
2.7772288e-08
2.7772288e-08
2.7772282e-08
2.7772275e-08
2.7772275e-08
2.7772265e-08
2.7772265e-08
2.7772252e-08
2.7772252e-08
2.7772235e-08
2.7772209e-08
2.7772209e-08
2.7772172e-08
2.7772172e-08
2.7772111e-08
2.7772111e-08
2.7771936e-08
2.7771936e-08
2.7768494e-08
2.7768494e-08
2.7737052e-08
2.7737052e-08
2.7829676e-08
2.7772322e-08
2.7772322e-08
2.7772322e-08
2.7772322e-08
2.7772322e-08
2.7772322e-08
2.7772322e-08
2.7772321e-08
2.7772321e-08
2.7772321e-08
2.777232e-08
2.777232e-08
2.7772318e-08
2.777231e-08
2.777231e-08
3.8446759e-08
2.7777646e-08
2.7812797e-08
2.7771918e-08
2.7771919e-08
2.7772046e-08
2.7772122e-08
2.7772171e-08
2.7772204e-08
2.7772227e-08
2.7772245e-08
2.7772257e-08
2.7772267e-08
2.7772275e-08
2.7772322e-08
2.7772322e-08
2.7772322e-08
2.7772322e-08
2.7772322e-08
2.7772322e-08
2.7772322e-08
2.7772322e-08
2.7772322e-08
2.7772322e-08
2.7772322e-08
2.7772322e-08
2.7772322e-08
2.7772322e-08
2.7772322e-08
2.7772321e-08
2.7772321e-08
2.7772321e-08
2.7772321e-08
2.7772321e-08
2.777232e-08
2.7772317e-08
2.7772306e-08
2.7772306e-08
)
;
    }
    procBoundary3to4
    {
        type            processor;
        value           nonuniform List<scalar> 
142
(
2.7771174e-08
2.7770788e-08
2.7771269e-08
2.7770651e-08
2.7770518e-08
2.7770377e-08
2.7770229e-08
2.7770064e-08
2.776987e-08
2.776965e-08
2.7769399e-08
2.776911e-08
2.7768802e-08
2.776841e-08
2.7767845e-08
2.7766565e-08
2.7750519e-08
2.7772265e-08
2.7772253e-08
2.7772253e-08
2.7772253e-08
2.7772236e-08
2.7772236e-08
2.7772213e-08
2.7772213e-08
2.7772214e-08
2.7772181e-08
2.7772181e-08
2.7772182e-08
2.7772131e-08
2.7772131e-08
2.7772133e-08
2.7772049e-08
2.7772049e-08
2.7772054e-08
2.7771902e-08
2.7771902e-08
2.7771527e-08
2.7771527e-08
2.7772293e-08
2.7772293e-08
2.7772293e-08
2.777231e-08
2.777231e-08
2.777231e-08
2.777231e-08
2.7772288e-08
2.7772288e-08
2.7772288e-08
2.7772282e-08
2.7772282e-08
2.7772282e-08
2.7772274e-08
2.7772275e-08
2.7772275e-08
2.7772264e-08
2.7772265e-08
2.7772265e-08
2.7771639e-08
2.7771678e-08
2.777171e-08
2.7771744e-08
2.7771174e-08
2.4929728e-08
2.3562289e-08
2.2095572e-08
2.0579792e-08
1.9058343e-08
1.7571354e-08
1.6210221e-08
1.4982869e-08
1.4539444e-08
1.4763509e-08
1.5811874e-08
1.564856e-08
1.5272808e-08
1.6376945e-08
2.5917166e-08
2.664963e-08
2.7162325e-08
2.7580581e-08
2.7580581e-08
2.7692222e-08
2.7750519e-08
2.7772311e-08
2.7772322e-08
2.7772322e-08
2.7772322e-08
2.7772322e-08
2.7772322e-08
2.7772322e-08
2.7772322e-08
2.7772322e-08
2.7772322e-08
2.7772322e-08
2.7772322e-08
2.7772321e-08
2.7772321e-08
2.7772321e-08
2.7772321e-08
2.7772321e-08
2.777232e-08
2.777232e-08
2.777232e-08
2.7772318e-08
2.7772318e-08
2.7772318e-08
2.7772318e-08
2.7772318e-08
2.7772311e-08
5.0222239e-08
2.7671749e-08
2.8029505e-08
2.7772079e-08
2.777156e-08
2.7771757e-08
2.7771914e-08
2.7772015e-08
2.7772081e-08
2.7772127e-08
2.7772161e-08
2.7772188e-08
2.7772208e-08
2.7772224e-08
2.7772322e-08
2.7772322e-08
2.7772322e-08
2.7772322e-08
2.7772322e-08
2.7772322e-08
2.7772322e-08
2.7772322e-08
2.7772322e-08
2.7772322e-08
2.7772322e-08
2.7772321e-08
2.7772321e-08
2.7772321e-08
2.7772321e-08
2.7772319e-08
2.7772316e-08
2.7772297e-08
)
;
    }
}


// ************************************************************************* //
