/*--------------------------------*- C++ -*----------------------------------*\
| =========                 |                                                 |
| \\      /  F ield         | OpenFOAM: The Open Source CFD Toolbox           |
|  \\    /   O peration     | Version:  2206                                  |
|   \\  /    A nd           | Website:  www.openfoam.com                      |
|    \\/     M anipulation  |                                                 |
\*---------------------------------------------------------------------------*/
FoamFile
{
    version     2.0;
    format      ascii;
    arch        "LSB;label=32;scalar=64";
    class       volScalarField;
    location    "0.01";
    object      nuTilda;
}
// * * * * * * * * * * * * * * * * * * * * * * * * * * * * * * * * * * * * * //

dimensions      [0 2 -1 0 0 0 0];

internalField   nonuniform List<scalar> 
1396
(
3.9636414e-07
3.9538367e-07
3.9561631e-07
3.9576294e-07
3.9576069e-07
3.9579737e-07
3.9584975e-07
3.9588511e-07
3.9589977e-07
3.959041e-07
3.9590552e-07
3.9761724e-07
3.9630987e-07
3.9575636e-07
3.9578351e-07
3.9576083e-07
3.9579626e-07
3.9585115e-07
3.9588545e-07
3.9589971e-07
3.9590338e-07
3.9590463e-07
3.9424055e-07
3.954148e-07
3.957368e-07
3.9577934e-07
3.9575773e-07
3.9579525e-07
3.9585067e-07
3.9588558e-07
3.9589934e-07
3.9590262e-07
3.9590374e-07
3.9685841e-07
3.9581399e-07
3.9582199e-07
3.9579346e-07
3.9576138e-07
3.9579833e-07
3.9585158e-07
3.9588619e-07
3.9589881e-07
3.9590158e-07
3.9590261e-07
3.9671177e-07
3.9548921e-07
3.9576407e-07
3.9576464e-07
3.9575474e-07
3.9579886e-07
3.9585204e-07
3.9588644e-07
3.9589793e-07
3.9590024e-07
3.9590114e-07
3.9948081e-07
3.9619938e-07
3.9586752e-07
3.9578611e-07
3.9575316e-07
3.9580007e-07
3.9585304e-07
3.9588643e-07
3.9589658e-07
3.9589834e-07
3.9589905e-07
3.9949833e-07
3.9643206e-07
3.9591812e-07
3.9581491e-07
3.9576213e-07
3.9580098e-07
3.958541e-07
3.9588588e-07
3.958945e-07
3.958955e-07
3.9589582e-07
4.0173655e-07
3.9707112e-07
3.9599891e-07
3.9583388e-07
3.9577114e-07
3.9580257e-07
3.9585502e-07
3.9588439e-07
3.9589127e-07
3.9589103e-07
3.9589053e-07
4.024547e-07
3.9755907e-07
3.9612884e-07
3.9586776e-07
3.9578453e-07
3.9580695e-07
3.9585585e-07
3.9588159e-07
3.9588619e-07
3.9588385e-07
3.958816e-07
4.0422482e-07
3.9818981e-07
3.9627224e-07
3.9587516e-07
3.9578469e-07
3.9580893e-07
3.9585522e-07
3.9587687e-07
3.9587818e-07
3.9587215e-07
3.9586632e-07
4.0510711e-07
3.9877082e-07
3.9650679e-07
3.9592172e-07
3.9579167e-07
3.9581108e-07
3.9585327e-07
3.9586938e-07
3.9586576e-07
3.9585322e-07
3.958405e-07
4.0633933e-07
3.9905452e-07
3.9659273e-07
3.9592435e-07
3.957878e-07
3.9580977e-07
3.9584928e-07
3.958579e-07
3.9584645e-07
3.9582322e-07
3.9579807e-07
4.0693547e-07
3.9930289e-07
3.9670062e-07
3.9594432e-07
3.9578575e-07
3.9580576e-07
3.9584221e-07
3.9583952e-07
3.9581594e-07
3.9577527e-07
3.9572892e-07
3.9924078e-07
3.9666863e-07
3.9593505e-07
3.957767e-07
3.958e-07
3.9582589e-07
3.9581257e-07
3.9577003e-07
3.9570221e-07
3.9562005e-07
3.9590499e-07
3.9590382e-07
3.9590279e-07
3.9590121e-07
3.9589905e-07
3.958956e-07
3.9588986e-07
3.9587991e-07
3.9586234e-07
3.9583152e-07
3.9577916e-07
3.9569356e-07
3.9555489e-07
3.9535172e-07
3.9590405e-07
3.959026e-07
3.9590118e-07
3.9589875e-07
3.9589492e-07
3.9588808e-07
3.9587554e-07
3.9585228e-07
3.9580973e-07
3.9573456e-07
3.9560894e-07
3.9541043e-07
3.9511341e-07
3.9471481e-07
3.9590327e-07
3.9590148e-07
3.9589941e-07
3.9589557e-07
3.9588872e-07
3.9587549e-07
3.9584998e-07
3.9580171e-07
3.9571381e-07
3.9556255e-07
3.9532054e-07
3.9496147e-07
3.944679e-07
3.9385562e-07
3.9590272e-07
3.9590054e-07
3.9589762e-07
3.958918e-07
3.9588049e-07
3.958577e-07
3.9581273e-07
3.9572744e-07
3.9557456e-07
3.9531987e-07
3.9493113e-07
3.9438894e-07
3.9369567e-07
3.9289579e-07
3.9590255e-07
3.9589997e-07
3.9589617e-07
3.9588821e-07
3.9587197e-07
3.9583826e-07
3.9577076e-07
3.9564287e-07
3.9541694e-07
3.9505094e-07
3.9451358e-07
3.9379926e-07
3.9293567e-07
3.9199772e-07
3.9590242e-07
3.9589978e-07
3.9589545e-07
3.9588597e-07
3.9586564e-07
3.9582226e-07
3.9573451e-07
3.9556758e-07
3.9527509e-07
3.9480943e-07
3.9414304e-07
3.9328588e-07
3.9229018e-07
3.9126255e-07
3.9590247e-07
3.958998e-07
3.9589528e-07
3.9588513e-07
3.9586274e-07
3.9581392e-07
3.9571308e-07
3.9551915e-07
3.9517819e-07
3.946377e-07
3.9387325e-07
3.9290759e-07
3.9181528e-07
3.9072502e-07
3.9590278e-07
3.9590022e-07
3.9589592e-07
3.9588615e-07
3.9586409e-07
3.9581479e-07
3.9571055e-07
3.9550635e-07
3.9514224e-07
3.9456007e-07
3.9373355e-07
3.9269248e-07
3.9152685e-07
3.9038465e-07
3.9590332e-07
3.95901e-07
3.9589725e-07
3.9588872e-07
3.9586914e-07
3.9582424e-07
3.9572663e-07
3.9553013e-07
3.9517077e-07
3.9458323e-07
3.9373385e-07
3.9265047e-07
3.914296e-07
3.9023092e-07
3.9590406e-07
3.9590203e-07
3.9589899e-07
3.9589221e-07
3.9587655e-07
3.9583978e-07
3.9575728e-07
3.9558529e-07
3.9525908e-07
3.9470618e-07
3.9387963e-07
3.927939e-07
3.9153918e-07
3.9027795e-07
3.9590494e-07
3.9590319e-07
3.9590085e-07
3.9589586e-07
3.958845e-07
3.9585738e-07
3.9579453e-07
3.9565807e-07
3.9538712e-07
3.9490497e-07
3.9414831e-07
3.9310759e-07
3.9185257e-07
3.9053894e-07
3.9590591e-07
3.9590438e-07
3.9590261e-07
3.9589913e-07
3.9589156e-07
3.958735e-07
3.9583051e-07
3.9573321e-07
3.9552981e-07
3.9514605e-07
3.9450532e-07
3.9356778e-07
3.923675e-07
3.910355e-07
3.9590706e-07
3.9590574e-07
3.9590436e-07
3.9590198e-07
3.9589723e-07
3.9588614e-07
3.9585933e-07
3.957962e-07
3.9565688e-07
3.9537611e-07
3.9487164e-07
3.9407486e-07
3.9297455e-07
3.9166826e-07
3.9590745e-07
3.9590622e-07
3.9590504e-07
3.959032e-07
3.9590007e-07
3.958934e-07
3.9587782e-07
3.9584127e-07
3.9575869e-07
3.9558537e-07
3.9525577e-07
3.9469943e-07
3.9388918e-07
3.9288163e-07
3.9591047e-07
3.9590951e-07
3.9590857e-07
3.9590751e-07
3.9590619e-07
3.9590404e-07
3.9590004e-07
3.9589059e-07
3.9586774e-07
3.9581402e-07
3.9569177e-07
3.9543217e-07
3.9495596e-07
3.9420612e-07
3.9591188e-07
3.9591104e-07
3.9591019e-07
3.959093e-07
3.9590831e-07
3.9590704e-07
3.9590537e-07
3.9590215e-07
3.9589461e-07
3.9587546e-07
3.9582637e-07
3.9570556e-07
3.9544496e-07
3.9491631e-07
3.959131e-07
3.9591233e-07
3.9591156e-07
3.9591075e-07
3.959099e-07
3.959089e-07
3.9590778e-07
3.9590623e-07
3.9590359e-07
3.9589763e-07
3.9588146e-07
3.9583593e-07
3.9572243e-07
3.954359e-07
3.9591407e-07
3.9591339e-07
3.9591269e-07
3.9591197e-07
3.9591115e-07
3.9591024e-07
3.9590928e-07
3.9590815e-07
3.959067e-07
3.959044e-07
3.9589936e-07
3.9588479e-07
3.9584215e-07
3.9571281e-07
3.95915e-07
3.959144e-07
3.959138e-07
3.9591317e-07
3.9591253e-07
3.9591176e-07
3.959109e-07
3.9590993e-07
3.9590879e-07
3.9590736e-07
3.959052e-07
3.959003e-07
3.9588621e-07
3.9583663e-07
3.9591575e-07
3.9591517e-07
3.9591462e-07
3.9591402e-07
3.9591342e-07
3.9591272e-07
3.9591192e-07
3.9591102e-07
3.9590999e-07
3.9590881e-07
3.9590729e-07
3.9590493e-07
3.9589982e-07
3.9588317e-07
3.9491092e-07
3.9395684e-07
3.9274277e-07
3.9174696e-07
3.9148711e-07
3.9181405e-07
3.9249617e-07
3.9361654e-07
3.9543723e-07
3.9755541e-07
3.9766589e-07
3.9577904e-07
3.971913e-07
4.2663534e-07
3.9399508e-07
3.9271246e-07
3.9149829e-07
3.9095125e-07
3.9111769e-07
3.9165269e-07
3.9259029e-07
3.9397997e-07
3.9608021e-07
3.9856834e-07
3.9749866e-07
3.9446254e-07
3.9695077e-07
4.3220489e-07
3.928793e-07
3.9148565e-07
3.905758e-07
3.9046088e-07
3.9083578e-07
3.9153716e-07
3.9276242e-07
3.9447574e-07
3.9672783e-07
3.9950957e-07
3.9710403e-07
3.9325854e-07
3.9655547e-07
4.3431838e-07
3.917519e-07
3.9048811e-07
3.8997028e-07
3.9012742e-07
3.9062872e-07
3.914781e-07
3.9298458e-07
3.9486986e-07
3.9736698e-07
4.0010648e-07
3.9665496e-07
3.9249365e-07
3.9632202e-07
4.3554413e-07
3.9079425e-07
3.8978153e-07
3.8956458e-07
3.8986065e-07
3.9045069e-07
3.9140538e-07
3.9314328e-07
3.9520212e-07
3.9813284e-07
4.0017609e-07
3.9609555e-07
3.9216883e-07
3.9589695e-07
4.3562963e-07
3.9007096e-07
3.8929825e-07
3.8926254e-07
3.896271e-07
3.9028184e-07
3.91308e-07
3.9320009e-07
3.9564418e-07
3.9875226e-07
3.999641e-07
3.9561166e-07
3.9200937e-07
3.9559191e-07
4.3508063e-07
3.8956265e-07
3.8895715e-07
3.8901397e-07
3.8940912e-07
3.9010228e-07
3.9115343e-07
3.9285185e-07
3.9624831e-07
3.9910171e-07
3.9987061e-07
3.953315e-07
3.9192899e-07
3.9539196e-07
4.3461561e-07
3.8922849e-07
3.8870106e-07
3.8878987e-07
3.8918845e-07
3.8988725e-07
3.9097013e-07
3.9250409e-07
3.9646305e-07
3.992585e-07
3.9998194e-07
3.9530397e-07
3.9181664e-07
3.9525754e-07
4.3468031e-07
3.8903714e-07
3.8849729e-07
3.8857076e-07
3.8894738e-07
3.8961911e-07
3.9066978e-07
3.9207225e-07
3.9634167e-07
3.9930318e-07
4.0031695e-07
3.9573081e-07
3.9166248e-07
3.9510702e-07
4.3570951e-07
3.8899143e-07
3.8834561e-07
3.8835562e-07
3.8868443e-07
3.8929755e-07
3.9025208e-07
3.9150263e-07
3.9583856e-07
3.9922094e-07
4.0069984e-07
3.9670557e-07
3.9155067e-07
3.950264e-07
4.3595183e-07
3.8911973e-07
3.8826196e-07
3.881564e-07
3.8841465e-07
3.8894512e-07
3.8982264e-07
3.9077595e-07
3.9496659e-07
3.9876831e-07
4.0106418e-07
3.9803865e-07
3.9155544e-07
3.9494789e-07
4.3656046e-07
3.8947422e-07
3.8830581e-07
3.880062e-07
3.8816511e-07
3.8859398e-07
3.8934381e-07
3.900664e-07
3.9374355e-07
3.9795287e-07
4.0110747e-07
3.9963179e-07
3.920742e-07
3.9467689e-07
4.3651082e-07
3.8999596e-07
3.8846703e-07
3.8788767e-07
3.8792004e-07
3.8823879e-07
3.8882126e-07
3.894938e-07
3.9219533e-07
3.9663953e-07
4.0086797e-07
4.0051137e-07
3.9314896e-07
3.9371761e-07
4.3652051e-07
3.913319e-07
3.8935398e-07
3.8822395e-07
3.8797209e-07
3.881158e-07
3.8854277e-07
3.8939774e-07
3.9041432e-07
3.9525161e-07
4.0046588e-07
4.0164165e-07
3.9644255e-07
3.9495023e-07
4.3424144e-07
3.9592199e-07
3.9592193e-07
3.9592193e-07
3.9592193e-07
3.9592184e-07
3.9592184e-07
3.9592184e-07
3.9592184e-07
3.959217e-07
3.959217e-07
3.959217e-07
3.9592171e-07
3.9592172e-07
3.9592172e-07
3.9592147e-07
3.9592147e-07
3.9592148e-07
3.9592149e-07
3.959215e-07
3.959215e-07
3.9592152e-07
3.9592152e-07
3.9592109e-07
3.959211e-07
3.959211e-07
3.9592111e-07
3.9592112e-07
3.9592114e-07
3.9592115e-07
3.9592116e-07
3.9592119e-07
3.9592121e-07
3.9592037e-07
3.9592037e-07
3.9592037e-07
3.9592037e-07
3.9592038e-07
3.9592042e-07
3.9592044e-07
3.9592047e-07
3.959205e-07
3.9592053e-07
3.9592057e-07
3.9592062e-07
3.9591872e-07
3.9591867e-07
3.9591864e-07
3.9591863e-07
3.9591864e-07
3.9591867e-07
3.9591872e-07
3.959188e-07
3.9591887e-07
3.9591894e-07
3.9591903e-07
3.9591913e-07
3.9591923e-07
3.9591361e-07
3.9591332e-07
3.9591309e-07
3.9591295e-07
3.9591292e-07
3.9591296e-07
3.9591306e-07
3.9591324e-07
3.9591348e-07
3.959138e-07
3.9591406e-07
3.9591436e-07
3.9591476e-07
3.9591473e-07
3.9592215e-07
3.9592215e-07
3.9592214e-07
3.9592214e-07
3.9592213e-07
3.9592213e-07
3.9592213e-07
3.9592213e-07
3.9592213e-07
3.9592212e-07
3.9592211e-07
3.9592211e-07
3.9592211e-07
3.9592211e-07
3.959221e-07
3.959221e-07
3.959221e-07
3.959221e-07
3.9592208e-07
3.9592208e-07
3.9592208e-07
3.9592208e-07
3.9592208e-07
3.9592208e-07
3.9592207e-07
3.9592207e-07
3.9592207e-07
3.9592207e-07
3.9592204e-07
3.9592204e-07
3.9592204e-07
3.9592204e-07
3.9592204e-07
3.9592204e-07
3.9592204e-07
3.9592204e-07
3.9592203e-07
3.9592203e-07
3.9592203e-07
3.9592202e-07
3.95922e-07
3.9592199e-07
3.95922e-07
3.9592199e-07
3.9592199e-07
3.9592199e-07
3.9592199e-07
3.9592199e-07
3.9592199e-07
3.9592198e-07
3.9592198e-07
3.9592197e-07
3.9592197e-07
3.9592196e-07
3.9592193e-07
3.9592193e-07
3.9592193e-07
3.9592193e-07
3.9592193e-07
3.9592193e-07
3.9592193e-07
3.9592192e-07
3.9592192e-07
3.9592191e-07
3.959219e-07
3.9592189e-07
3.9592188e-07
3.9592188e-07
3.9592183e-07
3.9592183e-07
3.9592183e-07
3.9592183e-07
3.9592183e-07
3.9592183e-07
3.9592183e-07
3.9592182e-07
3.9592181e-07
3.959218e-07
3.9592178e-07
3.9592177e-07
3.9592176e-07
3.9592175e-07
3.9592169e-07
3.9592169e-07
3.9592169e-07
3.9592169e-07
3.9592169e-07
3.9592169e-07
3.9592168e-07
3.9592166e-07
3.9592164e-07
3.9592162e-07
3.959216e-07
3.9592158e-07
3.9592156e-07
3.9592154e-07
3.9592147e-07
3.9592147e-07
3.9592147e-07
3.9592146e-07
3.9592146e-07
3.9592146e-07
3.9592143e-07
3.9592139e-07
3.9592135e-07
3.9592131e-07
3.9592126e-07
3.959212e-07
3.9592113e-07
3.9592106e-07
3.9592109e-07
3.9592109e-07
3.9592109e-07
3.9592109e-07
3.9592107e-07
3.9592104e-07
3.9592097e-07
3.9592088e-07
3.9592076e-07
3.9592056e-07
3.9592017e-07
3.9591941e-07
3.9591822e-07
3.9591706e-07
3.9592038e-07
3.9592038e-07
3.9592036e-07
3.9592034e-07
3.9592029e-07
3.959201e-07
3.959197e-07
3.9591901e-07
3.9591772e-07
3.9591567e-07
3.9591218e-07
3.9590344e-07
3.958935e-07
3.9588548e-07
3.9591876e-07
3.9591875e-07
3.9591871e-07
3.9591866e-07
3.9591829e-07
3.9591705e-07
3.9591385e-07
3.959069e-07
3.9589334e-07
3.9586889e-07
3.9583754e-07
3.9586853e-07
3.9592679e-07
3.9590368e-07
3.959138e-07
3.9591364e-07
3.9591357e-07
3.9591342e-07
3.9591362e-07
3.9591349e-07
3.9591075e-07
3.9589677e-07
3.9582086e-07
3.9554005e-07
3.9526398e-07
3.9491682e-07
3.9985876e-07
3.9490264e-07
3.9686044e-07
3.9610429e-07
3.9578664e-07
3.9516978e-07
3.9461897e-07
3.9447862e-07
3.9478027e-07
3.9532405e-07
3.9592062e-07
3.9649057e-07
3.976739e-07
3.9683678e-07
3.9564354e-07
3.9595604e-07
3.9561811e-07
3.9521695e-07
3.946127e-07
3.9414014e-07
3.9417502e-07
3.9462404e-07
3.953049e-07
3.9602874e-07
3.96905e-07
3.9758035e-07
4.1963902e-07
3.9598184e-07
3.9571606e-07
3.9568449e-07
3.9533259e-07
3.9480916e-07
3.9415249e-07
3.9377461e-07
3.9395888e-07
3.9452498e-07
3.9534876e-07
3.9615088e-07
3.9717474e-07
3.9768968e-07
4.1959545e-07
3.9578866e-07
3.9569476e-07
3.9552591e-07
3.9510355e-07
3.9442166e-07
3.9372641e-07
3.9347732e-07
3.9378681e-07
3.9447228e-07
3.9544127e-07
3.9629028e-07
3.9716253e-07
3.9776892e-07
4.2164165e-07
3.957801e-07
3.9566613e-07
3.9537404e-07
3.9479843e-07
3.9399732e-07
3.9332406e-07
3.9322738e-07
3.9364656e-07
3.944666e-07
3.9557425e-07
3.9647428e-07
3.9726052e-07
3.9772455e-07
4.2156178e-07
3.9578154e-07
3.9558644e-07
3.9515801e-07
3.944285e-07
3.935428e-07
3.9296097e-07
3.9301702e-07
3.9353839e-07
3.945044e-07
3.9574369e-07
3.9669609e-07
3.9733013e-07
3.9762094e-07
4.2175872e-07
3.9573158e-07
3.9544379e-07
3.9487153e-07
3.9400139e-07
3.9308628e-07
3.9264778e-07
3.9284001e-07
3.9346191e-07
3.9458083e-07
3.9595308e-07
3.9692823e-07
3.9726881e-07
3.9748178e-07
4.2285118e-07
3.9564527e-07
3.9524588e-07
3.945251e-07
3.9353914e-07
3.9265872e-07
3.9238704e-07
3.926975e-07
3.934225e-07
3.9469908e-07
3.9621608e-07
3.9715913e-07
3.9717896e-07
3.9729091e-07
4.2247263e-07
3.9551837e-07
3.9499114e-07
3.9412412e-07
3.9306379e-07
3.922814e-07
3.9216542e-07
3.9257209e-07
3.9339895e-07
3.9483827e-07
3.9653348e-07
3.9735379e-07
3.9699648e-07
3.9720558e-07
4.2299039e-07
3.9536733e-07
3.9470536e-07
3.9370322e-07
3.9260462e-07
3.9195196e-07
3.919941e-07
3.9251124e-07
3.9345311e-07
3.9502982e-07
3.9682951e-07
3.974874e-07
3.9676768e-07
3.9709117e-07
4.2174114e-07
3.9591645e-07
3.959168e-07
3.9591728e-07
3.9591755e-07
3.905317e-07
3.8879599e-07
3.8789736e-07
3.878158e-07
3.8812804e-07
3.8870874e-07
3.8976993e-07
3.9121576e-07
3.9448499e-07
4.0025029e-07
4.0229859e-07
3.975808e-07
3.9530307e-07
4.3759601e-07
3.8954802e-07
3.8804933e-07
3.8744007e-07
3.8748431e-07
3.8784964e-07
3.8849214e-07
3.8963597e-07
3.9122889e-07
3.9428776e-07
4.002717e-07
4.0222031e-07
3.9681172e-07
3.9592008e-07
4.3927797e-07
3.9226699e-07
3.9128405e-07
3.9360017e-07
3.9291118e-07
3.9465191e-07
3.9420646e-07
3.9532757e-07
3.9567419e-07
3.9592213e-07
3.9592211e-07
3.9592213e-07
3.9592211e-07
3.9592208e-07
3.9592213e-07
3.9592211e-07
3.9592208e-07
3.9592205e-07
3.9592213e-07
3.9592211e-07
3.9592208e-07
3.9592205e-07
3.95922e-07
3.9592193e-07
3.9592213e-07
3.9592211e-07
3.9592208e-07
3.9592205e-07
3.95922e-07
3.9592193e-07
3.9592184e-07
3.9592213e-07
3.9592211e-07
3.9592208e-07
3.9592205e-07
3.95922e-07
3.9592193e-07
3.9592184e-07
3.959217e-07
3.9592213e-07
3.9592211e-07
3.9592208e-07
3.9592205e-07
3.95922e-07
3.9592193e-07
3.9592184e-07
3.959217e-07
3.9592147e-07
3.9592214e-07
3.9592212e-07
3.9592209e-07
3.9592205e-07
3.9592201e-07
3.9592194e-07
3.9592185e-07
3.9592171e-07
3.9592147e-07
3.9592091e-07
3.9592214e-07
3.9592212e-07
3.9592209e-07
3.9592206e-07
3.9592201e-07
3.9592195e-07
3.9592185e-07
3.9592171e-07
3.9592148e-07
3.9592093e-07
3.95916e-07
3.9592214e-07
3.9592212e-07
3.959221e-07
3.9592206e-07
3.9592202e-07
3.9592196e-07
3.9592187e-07
3.9592173e-07
3.9592151e-07
3.9592097e-07
3.9591605e-07
3.9588269e-07
3.9592226e-07
3.9592226e-07
3.9592226e-07
3.9592226e-07
3.9592226e-07
3.9592226e-07
3.9592226e-07
3.9592226e-07
3.9592226e-07
3.9592226e-07
3.9592226e-07
3.9592226e-07
3.9592226e-07
3.9592226e-07
3.9592226e-07
3.9592226e-07
3.9592226e-07
3.9592226e-07
3.9592226e-07
3.9592226e-07
3.9592226e-07
3.9592226e-07
3.9592225e-07
3.9592224e-07
3.9592226e-07
3.9592226e-07
3.9592226e-07
3.9592226e-07
3.9592226e-07
3.9592225e-07
3.9592224e-07
3.9592221e-07
3.9592226e-07
3.9592226e-07
3.9592226e-07
3.9592225e-07
3.9592224e-07
3.9592221e-07
3.9592226e-07
3.9592225e-07
3.9592224e-07
3.9592221e-07
3.9592225e-07
3.9592224e-07
3.9592221e-07
3.9592224e-07
3.9592221e-07
3.9592224e-07
3.9592221e-07
3.9592221e-07
3.9592221e-07
3.9592221e-07
3.9592222e-07
4.1697613e-07
3.9537469e-07
3.9611386e-07
3.9592129e-07
3.9591962e-07
3.9592039e-07
3.9592091e-07
3.9592124e-07
3.9592147e-07
3.9592162e-07
3.9592173e-07
3.9592182e-07
3.9592189e-07
3.9592194e-07
4.1648996e-07
3.954555e-07
3.960652e-07
3.9592073e-07
3.9591989e-07
3.959206e-07
3.9592106e-07
3.9592135e-07
3.9592155e-07
3.959217e-07
3.9592179e-07
3.9592187e-07
3.9592193e-07
3.9592198e-07
4.160893e-07
3.9554201e-07
3.9603174e-07
3.9592046e-07
3.959201e-07
3.9592076e-07
3.9592117e-07
3.9592144e-07
3.9592162e-07
3.9592175e-07
3.9592184e-07
3.9592191e-07
3.9592196e-07
3.95922e-07
4.1573521e-07
3.9559833e-07
3.9600803e-07
3.9592033e-07
3.9592028e-07
3.9592089e-07
3.9592127e-07
3.9592151e-07
3.9592167e-07
3.9592179e-07
3.9592188e-07
3.9592194e-07
3.9592199e-07
3.9592203e-07
4.1542518e-07
3.9564147e-07
3.9599124e-07
3.9592027e-07
3.9592043e-07
3.9592099e-07
3.9592134e-07
3.9592157e-07
3.9592172e-07
3.9592183e-07
3.9592191e-07
3.9592196e-07
3.9592201e-07
3.9592205e-07
4.1515238e-07
3.9567347e-07
3.9597921e-07
3.9592025e-07
3.9592054e-07
3.9592108e-07
3.9592141e-07
3.9592162e-07
3.9592176e-07
3.9592186e-07
3.9592193e-07
3.9592198e-07
3.9592203e-07
3.9592206e-07
4.1488971e-07
3.956961e-07
3.9597075e-07
3.9592027e-07
3.9592064e-07
3.9592116e-07
3.9592146e-07
3.9592166e-07
3.9592179e-07
3.9592188e-07
3.9592195e-07
3.95922e-07
3.9592204e-07
3.9592207e-07
3.9592226e-07
3.9592226e-07
3.9592226e-07
3.9592226e-07
3.9592226e-07
3.9592226e-07
3.9592226e-07
3.9592226e-07
3.9592226e-07
3.9592226e-07
3.9592226e-07
3.9592226e-07
3.9592226e-07
3.9592226e-07
3.9592226e-07
3.9592226e-07
3.9592226e-07
3.9592226e-07
3.9592226e-07
3.9592226e-07
3.9592226e-07
3.9592226e-07
3.9592226e-07
3.9592226e-07
3.9592226e-07
3.9592226e-07
3.9592226e-07
3.9592226e-07
3.9592226e-07
3.9592226e-07
3.9592226e-07
3.9592226e-07
3.9592226e-07
3.9592226e-07
3.9592226e-07
3.9592226e-07
3.9592226e-07
3.9592226e-07
3.9592226e-07
3.9592226e-07
3.9592226e-07
3.9592226e-07
3.9592226e-07
3.9592226e-07
3.9592226e-07
3.9592226e-07
3.9592226e-07
3.9592226e-07
3.9592226e-07
3.9592226e-07
3.9592226e-07
3.9592226e-07
3.9592226e-07
3.9592226e-07
3.9592226e-07
3.9592225e-07
3.9592225e-07
3.9592224e-07
3.9592226e-07
3.9592226e-07
3.9592226e-07
3.9592226e-07
3.9592226e-07
3.9592226e-07
3.9592226e-07
3.9592226e-07
3.9592226e-07
3.9592226e-07
3.9592225e-07
3.9592225e-07
3.9592224e-07
3.959222e-07
3.9592226e-07
3.9592226e-07
3.9592226e-07
3.9592226e-07
3.9592226e-07
3.9592226e-07
3.9592226e-07
3.9592226e-07
3.9592226e-07
3.9592226e-07
3.9592225e-07
3.9592225e-07
3.9592224e-07
3.959222e-07
3.9592226e-07
3.9592226e-07
3.9592226e-07
3.9592226e-07
3.9592226e-07
3.9592226e-07
3.9592226e-07
3.9592226e-07
3.9592226e-07
3.9592226e-07
3.9592225e-07
3.9592225e-07
3.9592224e-07
3.9592219e-07
3.9592226e-07
3.9592226e-07
3.9592226e-07
3.9592226e-07
3.9592226e-07
3.9592226e-07
3.9592226e-07
3.9592226e-07
3.9592225e-07
3.9592225e-07
3.9592224e-07
3.9592219e-07
3.9592226e-07
3.9592226e-07
3.9592226e-07
3.9592226e-07
3.9592226e-07
3.9592225e-07
3.9592225e-07
3.9592224e-07
3.9592218e-07
3.9592226e-07
3.9592226e-07
3.9592225e-07
3.9592225e-07
3.9592224e-07
3.9592218e-07
3.9592225e-07
3.9592224e-07
3.9592217e-07
)
;

boundaryField
{
    Side
    {
        type            empty;
    }
    Inlet
    {
        type            inletOutlet;
        inletValue      uniform 3.9592226e-07;
        value           nonuniform List<scalar> 
15
(
3.9592226e-07
3.9592226e-07
3.9592226e-07
3.9592226e-07
3.9592226e-07
3.9592226e-07
3.9592226e-07
3.9592226e-07
3.9592226e-07
3.9592226e-07
3.9592226e-07
3.9592226e-07
3.9592226e-07
3.9592226e-07
3.9592226e-07
)
;
    }
    Airfoil
    {
        type            nutUSpaldingWallFunction;
        value           nonuniform List<scalar> 0();
    }
    Outlet
    {
        type            zeroGradient;
    }
    Flap
    {
        type            nutUSpaldingWallFunction;
        value           nonuniform List<scalar> 
32
(
1.4596911e-06
1.3973729e-06
1.3448829e-06
1.3027433e-06
1.2707856e-06
1.249352e-06
1.2378964e-06
1.2358319e-06
1.2422176e-06
1.2573897e-06
1.2804126e-06
1.3111933e-06
1.3489814e-06
1.3938599e-06
1.7828566e-06
1.7406717e-06
1.699706e-06
1.6618813e-06
1.6261684e-06
1.5922209e-06
1.5610627e-06
1.5326696e-06
1.5066882e-06
1.3925559e-06
1.3494119e-06
9.2370074e-06
9.798466e-06
1.0303378e-05
1.0761814e-05
1.1179754e-05
1.1564442e-05
1.1919113e-05
)
;
    }
    procBoundary3to2
    {
        type            processor;
        value           nonuniform List<scalar> 
113
(
3.9592226e-07
3.9592226e-07
4.0070334e-07
4.0070334e-07
4.0179775e-07
4.0114875e-07
4.0742553e-07
4.0405675e-07
4.0877862e-07
4.0825071e-07
4.1343452e-07
4.1346895e-07
4.1705759e-07
4.1744829e-07
4.2035855e-07
4.2055967e-07
4.0778168e-07
4.0778168e-07
3.9452457e-07
3.9665944e-07
3.9631507e-07
3.9452457e-07
4.0869524e-07
3.9078029e-07
3.984982e-07
3.965486e-07
3.9658289e-07
3.9591931e-07
3.9527623e-07
3.9491249e-07
3.9499053e-07
3.9540601e-07
3.9586089e-07
3.9627374e-07
3.9768128e-07
4.206247e-07
4.206247e-07
3.9592213e-07
3.9592213e-07
3.9592211e-07
3.9592208e-07
3.9592208e-07
3.9592205e-07
3.9592205e-07
3.95922e-07
3.95922e-07
3.9592193e-07
3.9592184e-07
3.9592184e-07
3.959217e-07
3.959217e-07
3.9592147e-07
3.9592147e-07
3.9592089e-07
3.9592089e-07
3.9591552e-07
3.9591552e-07
3.9586987e-07
3.9586987e-07
3.9631507e-07
3.9592226e-07
3.9592226e-07
3.9592226e-07
3.9592226e-07
3.9592226e-07
3.9592226e-07
3.9592226e-07
3.9592226e-07
3.9592226e-07
3.9592226e-07
3.9592225e-07
3.9592225e-07
3.9592224e-07
3.9592221e-07
3.9592221e-07
4.1470391e-07
3.9571141e-07
3.9596539e-07
3.9592033e-07
3.9592073e-07
3.9592122e-07
3.9592151e-07
3.9592169e-07
3.9592182e-07
3.959219e-07
3.9592197e-07
3.9592202e-07
3.9592205e-07
3.9592208e-07
3.9592226e-07
3.9592226e-07
3.9592226e-07
3.9592226e-07
3.9592226e-07
3.9592226e-07
3.9592226e-07
3.9592226e-07
3.9592226e-07
3.9592226e-07
3.9592226e-07
3.9592226e-07
3.9592226e-07
3.9592226e-07
3.9592226e-07
3.9592226e-07
3.9592226e-07
3.9592226e-07
3.9592225e-07
3.9592225e-07
3.9592225e-07
3.9592224e-07
3.959222e-07
3.959222e-07
)
;
    }
    procBoundary3to4
    {
        type            processor;
        value           nonuniform List<scalar> 
142
(
3.9591794e-07
3.9591649e-07
3.959183e-07
3.9591597e-07
3.9591547e-07
3.9591494e-07
3.9591439e-07
3.9591377e-07
3.9591304e-07
3.9591221e-07
3.9591126e-07
3.9591017e-07
3.9590901e-07
3.959075e-07
3.9590518e-07
3.9589955e-07
3.9582671e-07
3.9592204e-07
3.95922e-07
3.95922e-07
3.95922e-07
3.9592194e-07
3.9592194e-07
3.9592185e-07
3.9592185e-07
3.9592185e-07
3.9592173e-07
3.9592173e-07
3.9592173e-07
3.9592154e-07
3.9592154e-07
3.9592155e-07
3.9592123e-07
3.9592123e-07
3.9592125e-07
3.9592068e-07
3.9592068e-07
3.9591927e-07
3.9591927e-07
3.9592215e-07
3.9592215e-07
3.9592215e-07
3.9592222e-07
3.9592222e-07
3.9592221e-07
3.9592222e-07
3.9592213e-07
3.9592213e-07
3.9592213e-07
3.9592211e-07
3.9592211e-07
3.9592211e-07
3.9592208e-07
3.9592208e-07
3.9592208e-07
3.9592204e-07
3.9592204e-07
3.9592204e-07
3.9591969e-07
3.9591984e-07
3.9591996e-07
3.9592008e-07
3.9591794e-07
3.8874743e-07
3.8755854e-07
3.8722494e-07
3.8739194e-07
3.8783057e-07
3.8856655e-07
3.8984797e-07
3.9144931e-07
3.9490064e-07
4.0095249e-07
4.0203658e-07
3.951852e-07
3.9610458e-07
4.4019797e-07
3.9036032e-07
3.9206222e-07
3.9357433e-07
3.9509582e-07
3.9509582e-07
3.9556477e-07
3.9582671e-07
3.9592222e-07
3.9592226e-07
3.9592226e-07
3.9592226e-07
3.9592226e-07
3.9592226e-07
3.9592226e-07
3.9592226e-07
3.9592226e-07
3.9592226e-07
3.9592226e-07
3.9592226e-07
3.9592226e-07
3.9592226e-07
3.9592226e-07
3.9592226e-07
3.9592226e-07
3.9592225e-07
3.9592225e-07
3.9592225e-07
3.9592224e-07
3.9592224e-07
3.9592224e-07
3.9592224e-07
3.9592224e-07
3.9592222e-07
4.1737634e-07
3.9529221e-07
3.9618322e-07
3.9592246e-07
3.959193e-07
3.9592013e-07
3.9592073e-07
3.959211e-07
3.9592135e-07
3.9592153e-07
3.9592166e-07
3.9592175e-07
3.9592183e-07
3.9592189e-07
3.9592226e-07
3.9592226e-07
3.9592226e-07
3.9592226e-07
3.9592226e-07
3.9592226e-07
3.9592226e-07
3.9592226e-07
3.9592226e-07
3.9592226e-07
3.9592226e-07
3.9592226e-07
3.9592226e-07
3.9592225e-07
3.9592225e-07
3.9592225e-07
3.9592224e-07
3.9592217e-07
)
;
    }
}


// ************************************************************************* //
