/*--------------------------------*- C++ -*----------------------------------*\
| =========                 |                                                 |
| \\      /  F ield         | OpenFOAM: The Open Source CFD Toolbox           |
|  \\    /   O peration     | Version:  2206                                  |
|   \\  /    A nd           | Website:  www.openfoam.com                      |
|    \\/     M anipulation  |                                                 |
\*---------------------------------------------------------------------------*/
FoamFile
{
    version     2.0;
    format      ascii;
    arch        "LSB;label=32;scalar=64";
    class       volScalarField;
    location    "0.01";
    object      p;
}
// * * * * * * * * * * * * * * * * * * * * * * * * * * * * * * * * * * * * * //

dimensions      [1 -1 -2 0 0 0 0];

internalField   nonuniform List<scalar> 
1396
(
0.99180388
0.99381145
0.99445454
0.99570461
0.99732311
0.99873866
0.99954715
0.99987332
0.99997174
0.9999942
0.99999881
0.99211398
0.99377658
0.99447075
0.99567019
0.99733841
0.99876866
0.99956985
0.99988515
0.99997507
0.99999479
0.99999882
0.99241958
0.99375656
0.99448676
0.99562924
0.99735047
0.99879622
0.99959002
0.99989505
0.9999773
0.99999491
0.99999858
0.9927648
0.99375209
0.99448481
0.99563307
0.99738087
0.99883144
0.99961342
0.99990451
0.9999789
0.99999447
0.99999786
0.99311647
0.99377402
0.99448262
0.99564681
0.99742173
0.99887045
0.99963766
0.99991258
0.99997944
0.99999297
0.99999612
0.99347224
0.99383034
0.99448868
0.99567509
0.99747372
0.99891437
0.99966208
0.99991886
0.99997821
0.9999896
0.99999234
0.9938253
0.9939184
0.99450387
0.99571989
0.99753467
0.99896244
0.99968575
0.99992241
0.99997412
0.9999827
0.99998445
0.9941769
0.99403606
0.99453527
0.99578005
0.99760359
0.99901365
0.99970746
0.999922
0.99996534
0.99996944
0.99996845
0.99454933
0.99416804
0.99458722
0.99585488
0.99768023
0.99906651
0.99972549
0.99991555
0.99994837
0.99994475
0.99993704
0.99494544
0.99431464
0.99464652
0.99594118
0.99776344
0.9991188
0.99973762
0.99990015
0.99991834
0.99989967
0.99987709
0.99539126
0.99445999
0.99470537
0.99603929
0.99785091
0.99916775
0.99974125
0.99987139
0.99986699
0.99982
0.99976626
0.99589481
0.9945982
0.99478084
0.99615037
0.99794308
0.99921158
0.99973322
0.99982142
0.99978061
0.99968245
0.99956687
0.99646428
0.99474653
0.99489107
0.99627945
0.9980419
0.99924768
0.99970477
0.99973648
0.99963425
0.99944463
0.99920992
0.99493838
0.99503906
0.99642204
0.99813717
0.99926396
0.99963874
0.99959825
0.99939156
0.99904181
0.99858716
0.99999966
0.99999939
0.99999867
0.99999701
0.9999933
0.99998527
0.99996852
0.99993486
0.99986869
0.99974169
0.99950612
0.99908302
0.99832642
0.99701282
0.99999951
0.99999889
0.99999729
0.99999349
0.99998485
0.99996586
0.99992534
0.99984151
0.9996731
0.99934644
0.99874137
0.99766981
0.99581813
0.99279817
0.99999914
0.99999794
0.99999479
0.99998712
0.99996923
0.99992897
0.99984152
0.99965853
0.99929047
0.99858357
0.99730084
0.9950987
0.99147831
0.98592307
0.99999867
0.99999671
0.9999914
0.99997814
0.99994648
0.99987385
0.99971404
0.99937784
0.9987039
0.99742648
0.99515966
0.9913921
0.98547325
0.97683316
0.9999983
0.99999563
0.99998816
0.99996902
0.99992217
0.99981257
0.99956807
0.99905006
0.99801291
0.99606633
0.99267317
0.98717734
0.97883518
0.96708902
0.99999816
0.99999507
0.99998619
0.9999627
0.99990368
0.9997625
0.99944212
0.99875589
0.99737648
0.9947962
0.99034236
0.98324333
0.9727053
0.95821984
0.99999828
0.99999521
0.99998607
0.99996111
0.99989653
0.99973804
0.99937069
0.99857095
0.99694611
0.99389164
0.98862092
0.98026586
0.96799673
0.95135556
0.99999859
0.99999592
0.99998767
0.99996436
0.99990205
0.99974465
0.99937027
0.99853694
0.99681281
0.99352625
0.98779994
0.97867647
0.96527632
0.94715751
0.99999896
0.99999691
0.99999034
0.99997102
0.99991757
0.99977808
0.99943613
0.99865332
0.99699154
0.99375009
0.98798977
0.97866687
0.96482005
0.94596087
0.99999932
0.99999792
0.99999328
0.99997911
0.9999384
0.99982837
0.99954931
0.99888875
0.99743956
0.99452057
0.98917437
0.98028489
0.9667747
0.94802873
0.9999996
0.99999874
0.99999583
0.99998661
0.99995906
0.99988174
0.9996782
0.99917784
0.99803624
0.99564199
0.99107656
0.98318814
0.97076953
0.95300769
0.99999979
0.99999932
0.99999768
0.99999236
0.99997579
0.99992744
0.99979516
0.99945665
0.99865041
0.996879
0.99333227
0.98689551
0.97626659
0.96039947
0.9999999
0.99999967
0.99999883
0.99999605
0.99998712
0.9999599
0.99988226
0.99967491
0.99915767
0.99796152
0.99542943
0.99055854
0.98202544
0.96857843
0.99999996
0.99999985
0.99999945
0.99999806
0.9999935
0.99997936
0.99993822
0.99982614
0.9995407
0.99886375
0.99738171
0.99440974
0.9889393
0.97978701
0.99999999
0.99999998
0.99999992
0.99999969
0.99999888
0.99999617
0.99998763
0.99996209
0.99988978
0.99969513
0.99919541
0.99797879
0.99527031
0.98972589
1
1
0.99999999
0.99999996
0.99999985
0.99999942
0.99999783
0.99999231
0.999974
0.99991634
0.99974494
0.99926658
0.99806057
0.99510851
1
1
1
1
0.99999998
0.99999993
0.99999971
0.99999883
0.99999543
0.99998273
0.9999376
0.99978794
0.99935028
0.99805574
1
1
1
1
1
0.99999999
0.99999996
0.99999983
0.99999923
0.99999673
0.99998663
0.9999479
0.99981264
0.99932791
1
1
1
1
1
1
1
0.99999998
0.99999988
0.99999941
0.9999973
0.99998815
0.99995137
0.99979705
1
1
1
1
1
1
1
1
0.99999998
0.9999999
0.9999995
0.99999752
0.99998849
0.99994594
0.99383986
0.98454397
0.96712426
0.94029978
0.90683874
0.8719691
0.83933566
0.81210693
0.79687472
0.79037255
0.81061569
0.829342
0.81972536
0.79310759
0.98631295
0.97035739
0.9448867
0.91153095
0.87512538
0.8398061
0.80823553
0.78332482
0.77396395
0.77202487
0.79590315
0.81228456
0.79926432
0.76904055
0.97508941
0.95214368
0.9201692
0.88314743
0.84566055
0.81052856
0.78041806
0.75768938
0.75447508
0.758626
0.7828552
0.79266409
0.77988066
0.75025686
0.96130866
0.93231488
0.89604682
0.8572555
0.81941125
0.78470212
0.75629424
0.73553829
0.73740047
0.74753244
0.77044335
0.7719347
0.76075186
0.73436259
0.94732017
0.9139534
0.87520075
0.83554193
0.79755723
0.76320697
0.73622639
0.71661422
0.72230448
0.73873968
0.75929763
0.75380472
0.74405134
0.72175083
0.93504214
0.89878615
0.85856572
0.8183309
0.78015333
0.74588563
0.71983383
0.70090828
0.70897986
0.73043324
0.74842856
0.73846168
0.72916706
0.7103401
0.9256675
0.88751104
0.84625132
0.80541402
0.76681383
0.73219496
0.70593533
0.68745726
0.69733302
0.72126602
0.73781068
0.72547652
0.71612279
0.6993247
0.91977114
0.88027222
0.83804893
0.79639487
0.7569997
0.72149135
0.69387372
0.67549488
0.68566935
0.71072095
0.72730418
0.71426724
0.70448231
0.6877097
0.91762138
0.87709632
0.83380857
0.79101819
0.75036253
0.71339032
0.68347459
0.66375302
0.67287272
0.69822147
0.71662962
0.70463226
0.69402115
0.67512167
0.9195724
0.87836504
0.83392479
0.78969878
0.74734747
0.70834462
0.67547954
0.65255654
0.65905133
0.68381173
0.70552406
0.69717376
0.68523288
0.6621367
0.92533783
0.88390379
0.83828403
0.79235813
0.74793155
0.70641674
0.67028737
0.64231216
0.64441684
0.66707955
0.69244771
0.69115223
0.67739444
0.64830262
0.93462722
0.89382448
0.84725768
0.79949501
0.75270924
0.70831571
0.66875771
0.63436858
0.63017664
0.64859318
0.67661532
0.68668519
0.6711509
0.6356442
0.94555336
0.90641013
0.85942704
0.8099697
0.76086065
0.71361213
0.67068516
0.62980032
0.61759948
0.62898082
0.65739334
0.68141521
0.6656118
0.62437683
0.96267552
0.92859886
0.88304423
0.83185168
0.77944234
0.72793844
0.67993319
0.63217674
0.60807631
0.60801493
0.63416366
0.67282524
0.66146278
0.61647911
1
1
1
1
1
1
1
1
1
1
1
1
1
1
1
1
1
1
1
1
1
1
1
1
1
1
1
1
1
1
1
1
1
1
1
1
1
1
1
1
1
1
1
1
1
1
1
1
1
1
1
1
1
1
1
1
1
0.99999998
0.99999999
0.99999999
0.99999999
0.99999998
0.99999998
0.99999998
0.99999999
0.99999999
0.99999999
1
1
1
1
1
1
1
1
1
1
1
1
1
1
1
1
1
1
1
1
1
1
1
1
1
1
1
1
1
1
1
1
1
1
1
1
1
1
1
1
1
1
1
1
1
1
1
1
1
1
1
1
1
1
1
1
1
1
1
1
1
1
1
1
1
1
1
1
1
1
1
1
1
1
1
1
1
1
1
1
1
1
1
1
1
1
1
1
1
1
1
1
1
1
1
1
0.99999999
0.99999998
0.99999996
0.99999995
1
1
1
1
1
1
1
1
0.99999998
0.99999993
0.99999979
0.99999952
0.99999909
0.99999853
1
1
1
1
1
0.99999999
0.99999998
0.99999989
0.99999955
0.99999847
0.99999527
0.99998671
0.99996876
0.99994523
1
1
1
0.99999999
0.99999986
0.99999933
0.9999976
0.99999235
0.99997858
0.99995026
0.99989463
0.99975513
0.99948419
0.9992031
1
1
1.0000001
1.0000001
0.99999956
0.99999555
0.99997711
0.99991492
0.99975206
0.99942178
0.99884318
0.99794884
0.99633455
0.99360619
0.99999985
0.99999952
0.99999873
0.9999972
0.99999377
0.99998289
0.99993488
0.99972357
0.99911998
0.99738895
0.99503931
0.99610822
0.99604532
0.99908644
1.0007273
0.99988901
0.99684034
0.98953726
0.97622114
0.95770927
0.93844438
0.92286223
0.91546699
0.91039077
0.91898746
0.99565183
0.99693527
0.99759134
0.99661562
0.99254208
0.9828304
0.96603767
0.94457318
0.92351858
0.90704244
0.90117494
0.89778979
0.90780061
0.90833171
0.99681541
0.99742812
0.99737063
0.99518232
0.98873582
0.97548334
0.95492147
0.93091552
0.90854383
0.89165679
0.88774932
0.88670664
0.89734453
0.89658834
0.99831247
0.9983314
0.99724534
0.99330835
0.98390973
0.96678426
0.9428026
0.91686403
0.89369966
0.87687432
0.87532324
0.87735723
0.8879793
0.88521584
0.99921512
0.99863185
0.99637639
0.99032743
0.97766338
0.95674139
0.9299432
0.90262426
0.87918343
0.8628749
0.86397742
0.86960421
0.87921561
0.87306636
0.99939468
0.99819717
0.99463055
0.98617398
0.97004365
0.94562314
0.91664777
0.88841013
0.86516876
0.84971629
0.85371296
0.8628617
0.87062859
0.86066918
0.99916886
0.99722941
0.99207723
0.98088913
0.96122325
0.93376018
0.90317898
0.87440017
0.85179887
0.83740744
0.84464449
0.85710582
0.86212654
0.84869939
0.99868207
0.99579159
0.98873437
0.97455054
0.95145033
0.92148664
0.88977186
0.86077006
0.83920497
0.82602407
0.83667854
0.85210652
0.85363791
0.8367156
0.99792842
0.99381713
0.9845169
0.9671521
0.94086987
0.90895434
0.8764936
0.84754678
0.82734009
0.81554515
0.82943973
0.84691403
0.8449016
0.82462321
0.99695117
0.99141682
0.9796649
0.95909422
0.92993438
0.89641792
0.86338768
0.83462712
0.81596405
0.80555159
0.82225086
0.84095031
0.83591333
0.81287013
1
1
1
1
0.95137672
0.91414895
0.86748285
0.81649711
0.76516495
0.71535466
0.66881789
0.62734786
0.60360381
0.59121274
0.62354715
0.66580207
0.65487197
0.60926504
0.93625453
0.89527555
0.84704829
0.79622261
0.74587148
0.6975497
0.65304053
0.61403864
0.59218692
0.58356529
0.61641723
0.65822632
0.64616074
0.59923371
0.97348688
0.96353436
0.98663078
0.98115968
0.99406771
0.99140404
0.99771755
0.99923207
1
1
1
1
1
1
1
1
1
1
1
1
1
1
1
1
1
1
1
1
1
1
1
1
1
1
1
1
1
1
1
1
1
1
1
1
1
1
0.99999994
1
1
1
1
1
1
1
1
0.99999994
0.9999978
1
1
1
1
1
1
1
1
0.99999995
0.99999802
0.99992594
1
1
1
1
1
1
1
1
0.99999995
0.99999794
0.99992234
0.99902767
1
1
1
1
1
1
1
1
1
1
1
1
1
1
1
1
1
1
1
1
1
1
1
1
1
1
1
1
1
1
1
1
1
1
1
1
1
1
1
1
1
1
1
1
1
1
1
1
1
1
1
1
1
1.2631084
1.0123736
1.0037517
1.0000534
1.0000009
1
1
1
1
1
1
1
1
1
1.2240463
1.0099968
1.0028042
1.000037
1.0000006
1
1
1
1
1
1
1
1
1
1.1932806
1.0082282
1.0021613
1.0000268
1.0000004
1
1
1
1
1
1
1
1
1
1.1685819
1.0068821
1.0017047
1.0000201
1.0000003
1
1
1
1
1
1
1
1
1
1.1491945
1.0058467
1.0013786
1.0000155
1.0000002
1
1
1
1
1
1
1
1
1
1.1342252
1.0050469
1.0011428
1.0000122
1.0000002
1
1
1
1
1
1
1
1
1
1.1235617
1.0044446
1.0009753
1.0000099
1.0000002
1
1
1
1
1
1
1
1
1
1
1
1
1
1
1
1
1
1
1
1
1
1
1
1
1
1
1
1
1
1
1
1
1
1
1
1
1
1
1
1
1
1
1
1
1
1
1
1
1
1
1
1
1
1
1
1
1
1
1
1
1
1
1
1
1
1
1
1
1
1
1
1
1
1
1
1
1
1
1
1
1
1
1
1
1
1
1
1
1
1
1
1
1
1
1
1
1
1
1
1
1
1
1
1
1
1
1
1
1
1
1
1
1
1
1
1
1
1
1
1
1
1
1
1
1
1
1
1
1
1
1
1
1
1
1
1
1
1
1
)
;

boundaryField
{
    Side
    {
        type            empty;
    }
    Inlet
    {
        type            inletOutlet;
        inletValue      uniform 1;
        value           nonuniform List<scalar> 
15
(
1
1
1
1
1
1
1
1
1
1
1
1
1
1
1
)
;
    }
    Airfoil
    {
        type            zeroGradient;
    }
    Outlet
    {
        type            zeroGradient;
    }
    Flap
    {
        type            zeroGradient;
    }
    procBoundary3to2
    {
        type            processor;
        value           nonuniform List<scalar> 
113
(
1
1
0.96754807
0.96754807
0.96854092
0.96945836
0.97054325
0.9716981
0.97296576
0.97435248
0.97580913
0.97730534
0.97889013
0.98064163
0.98267848
0.98461073
0.9971106
0.9971106
0.9893045
0.95059421
0.98933564
0.9893045
1.0008475
1.0078296
1.0094417
1.0080162
1.0051322
0.99795453
0.98648262
0.97045798
0.95314523
0.93874862
0.93038899
0.92433255
0.93068159
0.91851284
0.91851284
1
1
1
1
1
1
1
1
1
1
1
1
1
1
0.99999994
0.99999994
0.99999772
0.99999772
0.99991749
0.99991749
0.99894023
0.99894023
0.98933564
1
1
1
1
1
1
1
1
1
1
1
1
1
1
1
1.1160001
1.0040206
1.0008653
1.0000086
1.0000001
1
1
1
1
1
1
1
1
1
1
1
1
1
1
1
1
1
1
1
1
1
1
1
1
1
1
1
1
1
1
1
1
1
)
;
    }
    procBoundary3to4
    {
        type            processor;
        value           nonuniform List<scalar> 
142
(
1
1
1
1
1
1
1
1
1
1
1
0.99999998
0.99999991
0.99999951
0.99999746
0.99998664
0.99977182
1
1
1
1
1
1
1
1
1
1
1
1
1
1
1
1
1
1
1
1
1
1
1
1
1
1
1
1
1
1
1
1
1
1
1
1
1
1
1
1
1
1
1
1
1
1
0.92052783
0.87646569
0.82710658
0.77653166
0.72704845
0.68000104
0.63732257
0.60046278
0.58125146
0.58031845
0.61406914
0.65017665
0.63609553
0.58961838
0.95206955
0.97366207
0.98713541
0.99658498
0.99658498
0.99880908
0.99977182
1
1
1
1
1
1
1
1
1
1
1
1
1
1
1
1
1
1
1
1
1
1
1
1
1
1
1.311085
1.0156176
1.0051656
1.0000811
1.0000014
1
1
1
1
1
1
1
1
1
1
1
1
1
1
1
1
1
1
1
1
1
1
1
1
1
1
1
)
;
    }
}


// ************************************************************************* //
