/*--------------------------------*- C++ -*----------------------------------*\
| =========                 |                                                 |
| \\      /  F ield         | OpenFOAM: The Open Source CFD Toolbox           |
|  \\    /   O peration     | Version:  2206                                  |
|   \\  /    A nd           | Website:  www.openfoam.com                      |
|    \\/     M anipulation  |                                                 |
\*---------------------------------------------------------------------------*/
FoamFile
{
    version     2.0;
    format      ascii;
    arch        "LSB;label=32;scalar=64";
    class       surfaceScalarField;
    location    "0.01";
    object      phi;
}
// * * * * * * * * * * * * * * * * * * * * * * * * * * * * * * * * * * * * * //

dimensions      [1 0 -1 0 0 0 0];

oriented        oriented;

internalField   nonuniform List<scalar> 
2641
(
0.00015562838
-0.0006392352
0.00060521868
0.00019017973
-0.0005094782
0.00047566291
0.00022426354
-0.00047446134
0.00044007364
0.00025784568
-0.00046998071
0.00043603624
0.00029124914
-0.00047025822
0.00043701914
0.0003245538
-0.0004705155
0.00043755583
0.00035770309
-0.00047039286
0.00043747093
0.00039072403
-0.0004702309
0.00043730399
0.00042368228
-0.0004701538
0.00043722861
0.00045661966
-0.00047013979
0.00043721077
-0.00047013779
0.00048955219
0.00043720744
0.00015686204
-0.00067294115
0.00019042896
-0.00054283386
0.00022426104
-0.00050830304
0.00025783249
-0.00050380642
0.00029126712
-0.00050351031
0.00032457299
-0.00050348963
0.00035771394
-0.00050331292
0.00039072848
-0.00050314804
0.00042368332
-0.00050308014
0.00045661985
-0.00050306909
-0.00050306761
0.00048955219
0.00015775888
-0.00070634032
0.00019072424
-0.00057605895
0.00022426283
-0.00054193941
0.00025780263
-0.00053742971
0.00029127106
-0.00053673215
0.00032458372
-0.00053646946
0.00035772087
-0.00053623159
0.00039073126
-0.00053606254
0.00042368389
-0.00053600591
0.00045661988
-0.00053599673
-0.00053599592
0.00048955207
0.0001584164
-0.00073876504
0.00019100147
-0.00060919873
0.00022430819
-0.00057542884
0.00025780036
-0.00057087625
0.00029128233
-0.00056992171
0.00032459704
-0.00056945328
0.00035772882
-0.00056914663
0.00039073398
-0.00056897648
0.00042368433
-0.00056892979
0.00045661975
-0.00056892112
-0.00056892109
0.00048955176
0.00015889635
-0.0007704178
0.00019126544
-0.00064232892
0.0002243724
-0.00060875665
0.00025780623
-0.00060413718
0.00029129234
-0.00060305743
0.00032460992
-0.00060243376
0.00035773647
-0.00060205838
0.00039073622
-0.00060188843
0.00042368443
-0.00060184888
0.00045661928
-0.00060183917
-0.00060183977
0.00048955105
0.00015925398
-0.00080148107
0.00019146567
-0.00067534078
0.00022444422
-0.00064196056
0.00025782377
-0.0006372744
0.00029130557
-0.00063611853
0.00032462332
-0.00063540085
0.00035774371
-0.00063496749
0.00039073788
-0.00063479621
0.00042368395
-0.00063475891
0.00045661813
-0.00063474556
-0.00063474506
0.00048954942
0.00015946679
-0.0008320986
0.00019159712
-0.00070817406
0.00022451392
-0.00067511868
0.00025784919
-0.00067031142
0.00029132279
-0.00066911997
0.00032463754
-0.00066834888
0.00035775033
-0.00066787145
0.00039073868
-0.00066769551
0.00042368254
-0.00066765311
0.00045661579
-0.00066763109
-0.0006676238
0.00048954602
0.00015957283
-0.00086243585
0.00019167947
-0.00074080108
0.00022457094
-0.00070824064
0.00025788324
-0.00070331212
0.00029134629
-0.00070208439
0.00032465282
-0.00070127486
0.00035775605
-0.00070076584
0.00039073819
-0.00070057777
0.00042367937
-0.00070051938
0.0004566111
-0.00070047772
-0.00070045197
0.00048953909
0.00015957683
-0.00089224368
0.00019171393
-0.00077320434
0.00022462133
-0.00074132823
0.00025792722
-0.00073631675
0.00029137588
-0.00073502503
0.00032466862
-0.00073417552
0.00035776042
-0.00073364307
0.00039073591
-0.00073343027
0.00042367342
-0.00073334189
0.00045660199
-0.00073325489
-0.0007331854
0.00048952537
0.00015948936
-0.00092151718
0.0001917198
-0.00080545728
0.00022467003
-0.00077441382
0.00025797834
-0.0007693195
0.00029140918
-0.00076793805
0.00032468407
-0.0007670468
0.0003577628
-0.00076649129
0.00039073054
-0.0007662349
0.00042366268
-0.00076608869
0.00045658513
-0.00076591252
-0.00076574616
0.00048949893
0.00015935519
-0.00095043722
0.00019172702
-0.00083776222
0.00022472544
-0.00080759066
0.00025803249
-0.00080230236
0.00029144314
-0.00080081762
0.00032469817
-0.00079988375
0.00035776232
-0.000799297
0.00039071985
-0.00079896565
0.00042364318
-0.00079871225
0.00045655446
-0.00079837017
-0.00079800603
0.00048944954
0.00015923372
-0.00097911522
0.00019176417
-0.00087019643
0.00022479146
-0.00084083706
0.00025808732
-0.00083524936
0.0002914752
-0.00083365922
0.00032470984
-0.0008326841
0.00035775865
-0.00083204665
0.00039070295
-0.00083159519
0.00042361061
-0.00083114679
0.00045650077
-0.00083051192
-0.00082977534
0.00048936092
0.00015914276
0.00019182764
-0.00090271918
0.00022486393
-0.00087406305
0.00025813969
-0.00086819085
0.00029150382
-0.0008664732
0.00032471753
-0.0008654421
0.00035774892
-0.00086471302
0.00039067667
-0.0008640656
0.00042355964
-0.00086329394
0.00045641187
-0.00086216055
-0.0008607572
0.00048920917
0.00019190651
-0.00093528713
0.0002249354
-0.00090721487
0.00025818984
-0.00090110754
0.00029152843
-0.00089925012
0.00032471932
-0.0008981284
0.00035772912
-0.00089725134
0.00039063411
-0.00089628782
0.00042347813
-0.00089498607
0.00045626413
-0.00089301532
0.00048895096
-0.00089044762
-0.0020458538
0.00050922194
0.0020261872
-0.0020655174
0.00050922177
-0.0020851738
0.00050922135
-0.0021048141
0.00050922035
-0.0021244206
0.00050921809
-0.0021439577
0.00050921317
-0.0021633597
0.00050920269
-0.0021825034
0.00050918116
-0.0022011618
0.00050913812
-0.0022189357
0.00050905463
-0.002235185
0.00050889871
-0.0022489795
0.00050862049
-0.0022587913
0.00050814423
0.00050736046
-0.0022624343
-0.0020458495
0.00052889138
0.002026186
-0.0020655063
0.000528891
-0.0020851464
0.00052889008
-0.002104749
0.00052888787
-0.0021242708
0.00052888275
-0.002143624
0.00052887126
-0.0021626368
0.00052884637
-0.0021809847
0.00052879424
-0.0021980795
0.00052868891
-0.0022129213
0.00052848454
-0.0022239911
0.00052810709
-0.0022291732
0.00052744748
-0.0022255562
0.00052635654
0.00052466304
-0.0022102226
-0.0020458428
0.00054856075
0.0020261844
-0.0020654877
0.00054856005
-0.0020850985
0.00054855833
-0.0021046308
0.00054855405
-0.00212399
0.0005485439
-0.0021429822
0.00054852067
-0.0021612275
0.00054846952
-0.0021780216
0.00054836145
-0.0021921353
0.00054814297
-0.0022016022
0.00054772297
-0.0022036551
0.00054696174
-0.0021948212
0.0005456683
-0.0021711215
0.00054361523
0.00054058945
-0.0021292056
-0.0020458341
0.00056823009
0.0020261825
-0.0020654628
0.00056822902
-0.0020850319
0.00056822627
-0.0021044606
0.00056821926
-0.0021235746
0.00056820222
-0.0021420145
0.00056816246
-0.0021590818
0.00056807368
-0.0021735083
0.00056788468
-0.0021831688
0.00056750278
-0.0021848694
0.00056677518
-0.0021744687
0.00056547919
-0.0021473414
0.00056333235
-0.0020990766
0.00056003886
0.0005553718
-0.0020266731
-0.0020458267
0.00058789948
0.0020261811
-0.0020654395
0.00058789809
-0.0020849655
0.00058789438
-0.0021042818
0.00058788467
-0.0021231197
0.00058786045
-0.002140921
0.00058780272
-0.0021566048
0.00058767176
-0.0021682433
0.00058739022
-0.0021727171
0.00058681965
-0.0021655857
0.0005857377
-0.0021414959
0.00058383337
-0.0020950745
0.00058073643
-0.002022072
0.00057609843
0.00056969903
-0.0019204211
-0.0020458231
0.00060756897
0.0020261807
-0.0020654261
0.00060756742
-0.0020849213
0.00060756312
-0.0021041501
0.00060755155
-0.0021227577
0.00060752187
-0.0021399982
0.00060744944
-0.0021544236
0.00060728196
-0.0021634726
0.00060691679
-0.0021630944
0.00060617068
-0.0021477378
0.00060475313
-0.0021110621
0.00060226807
-0.0020472456
0.00059826392
-0.0019525163
0.00059234741
0.00058431209
-0.0018260855
-0.0020458244
0.00062723854
0.0020261812
-0.0020654264
0.00062723704
-0.0020849129
0.00062723272
-0.0021041052
0.00062722067
-0.0021225938
0.00062718881
-0.0021395023
0.00062710896
-0.0021531077
0.00062691999
-0.0021603515
0.00062650002
-0.0021564283
0.0006256293
-0.0021348655
0.00062395875
-0.002088493
0.00062101524
-0.0020111246
0.00061626935
-0.0018994475
0.00060927882
0.00059984172
-0.0017539228
-0.0020458296
0.00064690819
0.0020261825
-0.0020654392
0.0006469069
-0.0020849398
0.00064690306
-0.002104154
0.00064689197
-0.0021226628
0.00064686166
-0.0021395453
0.00064678341
-0.0021529512
0.00064659309
-0.0021595398
0.00064615961
-0.0021540029
0.00064524137
-0.0021291588
0.00064344735
-0.0020770833
0.00064023996
-0.0019911051
0.00063501293
-0.0018680397
0.00062725937
0.00061675434
-0.0017091858
-0.0020458367
0.00066657786
0.0020261841
-0.0020654591
0.00066657688
-0.0020849905
0.00066657386
-0.002104274
0.00066656479
-0.0021229263
0.00066653913
-0.0021400765
0.00066647067
-0.0021539191
0.00066629892
-0.0021610938
0.00066589598
-0.0021561085
0.00066501803
-0.0021313343
0.00066325656
-0.0020781537
0.0006600302
-0.0019891686
0.0006546602
-0.0018607627
0.00064655339
0.00063541815
-0.0016943545
-0.0020458436
0.00068624752
0.0020261855
-0.0020654805
0.00068624685
-0.00208505
0.00068624474
-0.0021044292
0.00068623816
-0.0021233057
0.00068621883
-0.002140942
0.00068616545
-0.0021557463
0.00068602683
-0.0021646292
0.00068569035
-0.0021623101
0.00068493156
-0.0021410972
0.00068335565
-0.0020918489
0.0006803698
-0.0020062121
0.0006752396
-0.0018794545
0.00066726935
0.00065605065
-0.0017121441
-0.0020458492
0.00070591715
0.0020261865
-0.0020654985
0.00070591674
-0.002085104
0.00070591542
-0.0021045796
0.00070591118
-0.0021236987
0.00070589824
-0.002141903
0.00070586109
-0.0021579297
0.00070576108
-0.0021691982
0.00070550908
-0.0021710321
0.00070491816
-0.0021561561
0.00070363924
-0.0021152591
0.00070111081
-0.0020389961
0.00069657969
-0.0019209552
0.00068925242
0.00067856351
-0.0017598951
-0.0020458531
0.00072558674
0.0020261872
-0.0020655114
0.00072558651
-0.0020851445
0.00072558578
-0.0021046991
0.00072558332
-0.002124029
0.00072557559
-0.0021427583
0.00072555249
-0.0021599939
0.00072548787
-0.0021738034
0.00072531845
-0.0021804414
0.00072490397
-0.0021735976
0.00072396442
-0.0021444175
0.00072201207
-0.0020829312
0.00071832779
-0.0019808392
0.00071205477
0.00070245789
-0.0018343685
-0.0020458554
0.0007452563
0.0020261877
-0.0020655193
0.00074525619
-0.0020851701
0.00074525581
-0.0021047786
0.00074525451
-0.0021242598
0.00074525028
-0.0021433852
0.0007452372
-0.002161584
0.00074519929
-0.0021775446
0.00074509632
-0.0021885336
0.00074483478
-0.0021895201
0.00074421654
-0.0021726784
0.00074286842
-0.0021280436
0.00074018312
-0.0020457621
0.00073536219
0.00072775549
-0.0019197341
-0.0020458566
0.00076492585
0.0020261879
-0.0020655235
0.00076492584
-0.0020851837
0.00076492574
-0.0021048222
0.00076492539
-0.0021243945
0.00076492422
-0.0021437774
0.00076492042
-0.0021626558
0.00076490874
-0.0021802869
0.0007648752
-0.0021950677
0.00076478455
-0.0022038865
0.000764554
-0.0022015036
0.00076400262
-0.0021804126
0.00076277106
-0.0021315973
0.00076027344
0.00075601358
-0.0020480267
0.0008695487
0.00084141845
-0.00094604125
0.00079305624
0.00084141844
0.00071656409
0.00084141844
0.00064007308
0.00084141841
0.00056358577
0.00084141825
0.00048710998
0.00084141764
0.00041066775
0.00084141543
0.00033431837
0.00084140792
0.00025821299
0.0008413841
0.00018272001
0.00084131281
0.00010869259
0.00084110948
3.7916727e-05
0.00084055568
-2.6937364e-05
0.00083919926
0.00083617305
-8.2191915e-05
0.00086954867
0.00091791104
-0.00094604125
0.00079305609
0.00091791104
0.00071656355
0.00091791104
0.00064007113
0.00091791104
0.00056357926
0.00091791102
0.00048708939
0.00091791094
0.00041060666
0.00091791057
0.00033414802
0.00091790905
0.00025776653
0.00091790319
0.00018161488
0.0009178822
0.00010609934
0.00091781232
3.2202752e-05
0.00091759426
-3.8360584e-05
0.0009169897
0.00091535045
-0.00010219832
0.00086954866
0.00099440363
-0.00094604125
0.00079305608
0.00099440362
0.00071656349
0.00099440363
0.00064007093
0.00099440362
0.00056357841
0.00099440363
0.00048708614
0.00099440361
0.00041059487
0.00099440356
0.00033410755
0.00099440328
0.00025763542
0.00099440207
0.00018122207
0.00099439701
0.00010501141
0.00099437673
2.9418326e-05
0.00099430295
-4.4662796e-05
0.00099407065
0.00099331844
-0.00011488197
0.00086954871
0.0010708962
-0.0009460413
0.00079305612
0.0010708962
0.00071656354
0.0010708962
0.00064007095
0.0010708962
0.00056357838
0.0010708962
0.00048708582
0.0010708962
0.00041059343
0.0010708962
0.00033410172
0.0010708962
0.00025761295
0.0010708959
0.00018113648
0.0010708949
0.00010470754
0.0010708901
2.8461994e-05
0.0010708696
-4.720569e-05
0.001070794
0.0010705039
-0.00012108373
0.00086954867
0.0011473888
0.00079305608
0.0011473888
0.0007165635
0.0011473888
0.00064007091
0.0011473888
0.00056357832
0.0011473888
0.00048708574
0.0011473888
0.00041059318
0.0011473888
0.00033410074
0.0011473888
0.00025760883
0.0011473888
0.00018111948
0.0011473886
0.00010464132
0.0011473876
2.8210534e-05
0.0011473827
-4.8041911e-05
0.0011473617
0.0011472676
-0.0001235975
0.00086954866
0.00079305608
0.00071656349
0.00064007091
0.00056357832
0.00048708574
0.00041059315
0.00033410058
0.00025760811
0.00018111612
0.00010462654
2.8148451e-05
-4.8281156e-05
-0.0021485375
0.0010087721
-0.0010633506
-0.0019733102
0.0010015616
-0.0010600131
-0.0017190554
0.0009884569
-0.0010526768
-0.0014016082
0.00096887118
-0.0010394209
-0.0010698611
0.00094494961
-0.0010200293
-0.00075907178
0.00092024196
-0.00099727646
-0.00049162746
0.0008973616
-0.00097465572
-0.0002935552
0.0008787738
-0.00095506422
-0.00020752355
0.0008702652
-0.00094335372
-0.00024679213
0.00086820284
-0.00093731011
-0.00029517899
0.00088702041
-0.0009542327
-0.00023270807
0.00090177943
-0.00096924641
-0.00012551803
0.00089828789
-0.00097152321
0.00085086086
-0.00092917609
-0.0020574375
0.00096423878
-0.0018270285
0.00095212205
-0.0015235968
0.00093307103
-0.0011900487
0.00090849788
-0.00086769444
0.00088180742
-0.00057737926
0.00085591012
-0.00034334145
0.00083300837
-0.00018946503
0.00081555944
-0.00015424971
0.00081082102
-0.00025361755
0.00081291631
-0.00029943265
0.00083323202
-0.00017957382
0.00084396832
-7.1775022e-05
0.0008377186
0.00078831004
-0.0019298435
0.00092813235
-0.0016517024
0.00091075018
-0.0013248012
0.00088661108
-0.00099471997
0.00085872678
-0.0006866795
0.00083035455
-0.00041798925
0.00080367253
-0.00021821065
0.00078102199
-0.00011103934
0.00076483688
-0.00012037382
0.00076369001
-0.00026941882
0.00077053525
-0.00029859384
0.00079072937
-0.00013637196
0.00079530319
-2.2430526e-05
0.00078736235
0.00073941907
-0.0017841197
0.00090045302
-0.0014761924
0.00087821615
-0.0011448781
0.00085019541
-0.00082461098
0.00082002094
-0.0005320276
0.00079030948
-0.00028482228
0.0007629192
-0.00011790382
0.00074050167
-4.6241343e-05
0.00072541663
-9.7670625e-05
0.0007273791
-0.0002748116
0.00073898291
-0.0002837153
0.0007575208
-0.00010509977
0.0007558491
1.4684974e-05
0.00074684902
0.00070166569
-0.0016455431
0.00088070295
-0.0013236035
0.00085449725
-0.00099531339
0.00082360226
-0.00068449675
0.00079160906
-0.00040532419
0.00076061845
-0.00017509352
0.00073242573
-3.3830625e-05
0.00070995528
8.1905738e-06
0.00069542542
-8.6752402e-05
0.00070006062
-0.00026573131
0.00071636496
-0.00025092502
0.00073241066
-8.0169998e-05
0.00072614581
4.9204118e-05
0.00071620621
0.00067412497
-0.0015315415
0.00086942158
-0.0012051994
0.00084002557
-0.0008817724
0.00080675677
-0.00057870976
0.00077299017
-0.0003100416
0.00074053643
-9.2383135e-05
0.00071120882
3.676944e-05
0.00068810725
4.0918097e-05
0.00067364136
-8.7541591e-05
0.00068051004
-0.0002542907
0.00070041967
-0.00022220751
0.00071420175
-6.2180256e-05
0.00070502037
6.7058627e-05
0.00069378757
0.00065387771
-0.0014491251
0.00086709019
-0.0011222188
0.00083498231
-0.00080259765
0.00079943387
-0.00050448814
0.00076367014
-0.00024218953
0.00072937103
-3.1417225e-05
0.00069835212
9.9948685e-05
0.00067371882
6.9645726e-05
0.00065884331
-7.8619803e-05
0.00066732393
-0.00024088616
0.00068944548
-0.00020275012
0.00070232978
-4.8776159e-05
0.00069160037
7.7552902e-05
0.00067871868
0.00063956886
-0.0014002713
0.00087447984
-0.0010736581
0.00083985698
-0.0007557232
0.00080183189
-0.0004592247
0.00076362905
-0.00019836089
0.00072689704
7.2916419e-06
0.00069342333
0.00014638255
0.00066616088
9.9986489e-05
0.00065003254
-5.8879093e-05
0.00065873745
-0.00022709441
0.00068243448
-0.00019356209
0.00069623757
-4.1211788e-05
0.00068508387
8.413013e-05
0.00066999322
0.00062969596
-0.0013852024
0.00089241223
-0.0010581531
0.00085535872
-0.00073907646
0.00081451433
-0.00044030488
0.00077329439
-0.00017564825
0.00073339944
4.128278e-05
0.00069658939
0.00018545558
0.00066555933
0.00013809257
0.00064646828
-2.346048e-05
0.00065377398
-0.0002094668
0.00067859831
-0.00019352427
0.0006953844
-3.8647159e-05
0.00068555004
8.9048272e-05
0.00066750837
0.00062412505
-0.0014063493
0.00092112788
-0.0010777014
0.00088185493
-0.00075437975
0.00083789509
-0.00044927807
0.00079308944
-0.00017562235
0.00074930687
5.6248974e-05
0.00070828311
0.00021791599
0.00067248054
0.00018567734
0.00064830856
2.2835671e-05
0.00065214826
-0.00018263508
0.00067716828
-0.00020405086
0.00069870535
-4.3287715e-05
0.00069301654
8.9320547e-05
0.00067144173
0.00062298525
-0.0014629135
0.00096127406
-0.0011327862
0.00092024874
-0.00080303437
0.00087297064
-0.00048850299
0.00082398112
-0.00020188169
0.00077552015
4.4680536e-05
0.00072935828
0.00023707408
0.00068781751
0.00023662641
0.00065636389
8.6966887e-05
0.00065415518
-0.00014311962
0.00067749506
-0.00022440539
0.00070452169
-5.9072865e-05
0.00070684572
7.7381693e-05
0.00068182798
0.0006263821
-0.0015545603
0.0010119974
-0.0012247217
0.00097014841
-0.00088661766
0.00091971982
-0.00055958497
0.00086616821
-0.00025616786
0.00081240822
4.2449286e-06
0.00076035658
0.0002380718
0.00071221827
0.00028618681
0.00067170962
0.00016592758
0.00066015778
-8.032843e-05
0.00067893593
-0.00023493485
0.00071055166
-8.4891395e-05
0.00072552431
4.6675032e-05
0.00069943356
0.00063582258
-0.0016667058
0.0010744041
-0.0013421829
0.00103363
-0.00099636837
0.00098075114
-0.00065642589
0.00092205047
-0.0003352802
0.00086188006
-4.533081e-05
0.00080264699
0.00021330017
0.0007466928
0.00032420368
0.00069629611
0.00024848442
0.00067261625
-4.3761254e-08
0.00068314025
-0.00022233394
0.00071767888
-0.00012107453
0.00074790919
-6.4993433e-06
0.00072531876
0.00065207122
-0.001853162
0.0011361368
-0.0015534491
0.0010954321
-0.00120019
0.0010414918
-0.00083923861
0.00097968739
-0.00048887887
0.00091521402
-0.00016233457
0.00085075603
0.00012617865
0.00078870016
0.00033322925
0.00073207904
0.00032707155
0.00069544331
9.639373e-05
0.00069253782
-0.00016393869
0.00072939402
-0.00016350942
0.00077203709
-6.5461998e-05
0.00075487772
0.00067225696
-0.0017639277
-0.014062302
0.014095084
-0.0017967103
-0.014062302
0.014127867
-0.0017967102
-0.0017967103
0.014095084
-0.0018294928
-0.014062302
0.014127867
-0.0018294928
0.014160649
-0.0018294928
-0.0018294928
0.014095084
-0.0018622753
-0.014062302
0.014127867
-0.0018622753
0.014160649
-0.0018622753
0.014193432
-0.0018622753
0.014226215
-0.0018622753
-0.0018622753
0.014095084
-0.0018950579
-0.014062302
0.014127867
-0.0018950579
0.014160649
-0.0018950579
0.014193432
-0.0018950579
0.014226215
-0.0018950578
0.014258997
-0.0018950579
0.01429178
-0.0018950579
-0.0018950579
0.014095084
-0.0019278404
-0.014062302
0.014127867
-0.0019278404
0.014160649
-0.0019278404
0.014193432
-0.0019278404
0.014226215
-0.0019278404
0.014258997
-0.0019278404
0.01429178
-0.0019278404
0.014324562
-0.0019278404
0.014357345
-0.0019278404
-0.0019278404
0.014095084
-0.0019606229
-0.014062302
0.014127867
-0.001960623
0.014160649
-0.001960623
0.014193432
-0.001960623
0.014226215
-0.001960623
0.014258997
-0.001960623
0.01429178
-0.001960623
0.014324562
-0.0019606229
0.014357345
-0.001960623
0.014390127
-0.001960623
0.01442291
-0.001960623
-0.001960623
0.014095084
-0.0019934055
-0.014062302
0.014127867
-0.0019934055
0.014160649
-0.0019934055
0.014193432
-0.0019934055
0.014226215
-0.0019934055
0.014258997
-0.0019934054
0.01429178
-0.0019934055
0.014324562
-0.0019934055
0.014357345
-0.0019934055
0.014390127
-0.0019934055
0.01442291
-0.0019934055
0.014455692
-0.0019934055
-0.0019934054
0.014095084
-0.0140623
0.014127867
0.01416065
0.014193432
0.014226215
0.014258998
0.01429178
0.014324563
0.014357345
0.014390127
0.01442291
0.014455692
0.014488475
0.014521257
-0.01538194
-0.0019967786
-0.015501907
-0.0019967787
-0.015621874
-0.0019967786
-0.0019967787
-0.015741841
-0.015142006
-0.0018768116
-0.015261973
-0.0018768115
-0.01538194
-0.0018768116
-0.015501907
-0.0018768115
-0.015621874
-0.0018768116
-0.0018768116
-0.015741841
-0.014902071
-0.0017568444
-0.015022038
-0.0017568445
-0.015142006
-0.0017568445
-0.015261973
-0.0017568445
-0.01538194
-0.0017568444
-0.015501907
-0.0017568445
-0.015621874
-0.0017568444
-0.0017568446
-0.015741841
-0.014662137
-0.0016368774
-0.014782104
-0.0016368774
-0.014902071
-0.0016368774
-0.015022038
-0.0016368774
-0.015142006
-0.0016368774
-0.015261973
-0.0016368774
-0.01538194
-0.0016368774
-0.015501907
-0.0016368774
-0.015621874
-0.0016368774
-0.0016368773
-0.015741841
-0.014422203
-0.0015169103
-0.01454217
-0.0015169103
-0.014662137
-0.0015169103
-0.014782104
-0.0015169103
-0.014902071
-0.0015169103
-0.015022038
-0.0015169103
-0.015142006
-0.0015169103
-0.015261973
-0.0015169104
-0.01538194
-0.0015169103
-0.015501907
-0.0015169104
-0.015621874
-0.0015169103
-0.0015169103
-0.015741841
-0.014182269
-0.0013969432
-0.014302236
-0.0013969433
-0.014422203
-0.0013969432
-0.01454217
-0.0013969433
-0.014662137
-0.0013969432
-0.014782104
-0.0013969433
-0.014902071
-0.0013969433
-0.015022039
-0.0013969432
-0.015142006
-0.0013969433
-0.015261973
-0.0013969432
-0.01538194
-0.0013969433
-0.015501907
-0.0013969432
-0.015621874
-0.0013969433
-0.0013969432
-0.015741841
-0.014182269
-0.0012769762
-0.014302236
-0.0012769761
-0.014422203
-0.0012769762
-0.01454217
-0.0012769761
-0.014662137
-0.0012769762
-0.014782104
-0.0012769761
-0.014902071
-0.0012769762
-0.015022038
-0.0012769762
-0.015142006
-0.0012769761
-0.015261973
-0.0012769762
-0.01538194
-0.0012769761
-0.015501907
-0.0012769762
-0.015621874
-0.0012769761
-0.0012769762
-0.015741841
-0.014182269
-0.0011570091
-0.014302236
-0.001157009
-0.014422203
-0.0011570091
-0.01454217
-0.0011570091
-0.014662137
-0.001157009
-0.014782104
-0.0011570092
-0.014902071
-0.001157009
-0.015022039
-0.0011570091
-0.015142006
-0.0011570091
-0.015261973
-0.001157009
-0.01538194
-0.0011570091
-0.015501907
-0.0011570091
-0.015621874
-0.001157009
-0.001157009
-0.015741841
-0.014182269
-0.001037042
-0.014302236
-0.001037042
-0.014422203
-0.001037042
-0.01454217
-0.001037042
-0.014662137
-0.001037042
-0.014782104
-0.001037042
-0.014902071
-0.0010370419
-0.015022039
-0.001037042
-0.015142006
-0.001037042
-0.015261973
-0.0010370419
-0.01538194
-0.0010370415
-0.015501907
-0.0010370411
-0.015621874
-0.0010370401
-0.001037039
-0.015741841
-0.014182269
-0.0009170749
-0.014302236
-0.00091707493
-0.014422203
-0.00091707494
-0.01454217
-0.00091707489
-0.014662137
-0.00091707495
-0.014782104
-0.00091707495
-0.014902071
-0.00091707489
-0.015022038
-0.00091707482
-0.015142005
-0.00091707424
-0.015261972
-0.00091707239
-0.015381939
-0.00091706722
-0.015501908
-0.00091705569
-0.015621878
-0.00091703758
-0.00091701651
-0.015741848
-0.014182269
-0.00079710785
-0.014302236
-0.00079710782
-0.014422203
-0.00079710786
-0.01454217
-0.00079710787
-0.014662137
-0.00079710792
-0.014782104
-0.00079710818
-0.014902072
-0.00079710822
-0.01502204
-0.00079710668
-0.015142006
-0.00079710055
-0.015261962
-0.00079708508
-0.015381886
-0.00079702551
-0.015501739
-0.00079683471
-0.015621545
-0.00079632614
-0.00079554027
-0.015741469
-0.014182269
-0.00067714077
-0.014302236
-0.00067714075
-0.014422203
-0.0006771406
-0.014542169
-0.00067714031
-0.014662129
-0.00067713983
-0.014782077
-0.00067713954
-0.01490199
-0.0006771359
-0.015021816
-0.00067710659
-0.015141475
-0.00067700728
-0.015260932
-0.00067685997
-0.015379817
-0.00067659292
-0.015498
-0.0006737112
-0.015617979
-0.00066549577
-0.00065549361
-0.015741385
-0.014182269
-0.00055717375
-0.014302238
-0.00055717389
-0.014422208
-0.00055717344
-0.014542177
-0.00055717079
-0.014662117
-0.0005571624
-0.014781906
-0.00055713002
-0.014901226
-0.00055695275
-0.015019462
-0.00055626044
-0.015135854
-0.00055508637
-0.015249922
-0.00055427478
-0.015365267
-0.00055321841
-0.015486654
-0.00054945945
-0.015613761
-0.014182263
-0.014302225
-0.014422201
-0.014542251
-0.014662534
-0.014783451
-0.014904742
-0.015021282
-0.015121707
-0.015181252
-0.015214948
-0.00089003793
0.0013429348
-0.00083580503
0.0013463808
-0.0007767959
0.0013506996
-0.00072053735
0.0013512579
-0.00065474756
0.0013495997
-0.00057365492
0.0013443729
-0.00047490037
0.0013347636
-0.00037108653
0.0013218651
-0.00027672578
0.0013096392
-0.00019986675
0.0013018555
-0.00014615064
0.0013034599
-0.00011373091
0.0013062816
0.0013235054
-0.0008684909
0.0013046393
-0.00082539201
0.0013061114
-0.00077646062
0.0013075817
-0.00072126134
0.0013076187
-0.00065148618
0.001305029
-0.00056057052
0.0012982483
-0.00045233137
0.0012863077
-0.00034408739
0.0012713466
-0.00024936685
0.0012577285
-0.00017632376
0.0012489559
-0.0001296261
0.0012515268
-0.00010909995
0.0012547207
-7.3029623e-05
0.0012725866
0.0012569282
-0.00086314962
0.0012688394
-0.00082297813
0.0012696958
-0.00077711462
0.0012699671
-0.0007199615
0.0012687801
-0.000643541
0.0012643525
-0.00054312871
0.0012549315
-0.0004286946
0.0012402435
-0.00031901037
0.0012234366
-0.00022642361
0.0012087882
-0.00015969364
0.0011994159
-0.00012070152
0.0012031511
-0.00011154138
0.0012074912
-7.952955e-05
0.0012247969
0.0012051892
-0.00086220656
0.0012348449
-0.00082247926
0.001235011
-0.00077543175
0.0012343292
-0.000713223
0.0012316718
-0.00062753694
0.0012251077
-0.00051754679
0.001212948
-0.00039868206
0.0011958126
-0.00028861639
0.0011776385
-0.00019935412
0.0011623845
-0.00013975981
0.0011527821
-0.00010886012
0.0011579914
-0.00010901653
0.0011639336
-7.9689024e-05
0.0011805111
0.0011584349
-0.00086250591
0.00120209
-0.00082273446
0.0012017048
-0.00077285452
0.0012001795
-0.00070370823
0.0011960384
-0.00060794475
0.0011872406
-0.00049007993
0.001172449
-0.00036892918
0.0011533739
-0.00025994605
0.0011342735
-0.0001756981
0.0011188348
-0.00012440832
0.0011093898
-0.00010284789
0.0011162964
-0.00011003881
0.0011243075
-8.0944103e-05
0.0011393188
0.001113396
-0.00086269196
0.0011708004
-0.0008219972
0.0011699993
-0.00076761888
0.0011676154
-0.00068999081
0.0011618983
-0.00058419939
0.0011507876
-0.00046060459
0.0011336148
-0.0003387828
0.001113101
-0.0002320768
0.0010934221
-0.00015401977
0.0010781683
-0.00011172163
0.0010691439
-9.9809019e-05
0.0010778253
-0.00011083911
0.0010878874
-8.0105754e-05
0.0011005926
0.0010704959
-0.00086196588
0.001141182
-0.00081892398
0.0011399367
-0.00075836743
0.0011365584
-0.00067111883
0.0011291011
-0.00055614454
0.0011156631
-0.0004288408
0.0010964728
-0.0003074605
0.0010749624
-0.00020393107
0.0010549907
-0.0001328495
0.0010402584
-0.00010013623
0.0010317879
-9.765271e-05
0.001042523
-0.00010897669
0.0010543938
-7.6485473e-05
0.0010645002
0.0010312667
-0.00086005483
0.0011133403
-0.00081343046
0.0011115256
-0.00074547112
0.0011069762
-0.00064832842
0.001097624
-0.00052590724
0.0010819467
-0.00039676332
0.0010611525
-0.00027686031
0.0010390062
-0.00017739773
0.0010189879
-0.00011402071
0.0010050869
-9.1822686e-05
0.00099729253
-9.7964092e-05
0.0010102881
-0.00010612727
0.0010237724
-7.1958718e-05
0.0010309606
0.0009949542
-0.00085670503
0.0010874329
-0.00080543927
0.0010849196
-0.0007292628
0.0010790324
-0.00062275303
0.001067702
-0.00049505791
0.0010499815
-0.0003656929
0.001027984
-0.00024831804
0.0010054798
-0.00015382523
0.00098561087
-9.8736542e-05
0.00097275881
-8.7664608e-05
0.00096576028
-0.00010052581
0.00098083191
-0.00010297267
0.00099538821
-6.7054182e-05
0.000999823
0.00096067196
-0.00085202006
-0.00079530256
-0.00071056333
-0.00059564268
-0.0004643111
-0.00033548464
-0.00022115495
-0.00013191404
-8.4935075e-05
-8.4604226e-05
-0.00010200457
-9.7421976e-05
-6.0739908e-05
0.014398825
0.014276393
0.014153961
-0.0027164384
0.0010986756
0.0030237095
-0.0023159966
0.001051024
-0.0018712629
0.00099323039
-0.0014258333
0.00092976431
-0.0009996167
0.00086522896
-0.00060712485
0.00080194592
-0.00027493348
0.00074230568
-2.4681924e-05
0.00069115252
6.8659776e-05
0.00065611257
-9.0058469e-05
0.00065229223
-0.0003074637
0.00069384058
-0.00029585768
0.00073800687
-0.00014890911
0.00072213904
0.00063780748
-0.0025670708
0.002905565
-0.0021556372
-0.0017187789
-0.0012897728
-0.00088414875
-0.00051616604
-0.00021188293
9.6816882e-06
8.8823471e-05
-9.2005786e-05
-0.00031983738
-0.00028656015
-0.00013101415
-3.7815236e-05
0.0031706186
0.0031046654
-7.6554964e-05
0.0032672504
0.0032322466
-0.00010007389
0.0033185118
0.0033394439
-0.0030063298
0.016016798
0.0030408238
0.016016798
-0.0030075716
0.015983546
0.0030408237
-0.0029743194
0.015983546
0.015983546
-0.0030082456
0.015950968
0.0030408238
-0.0029756674
0.015950968
-0.0029430893
0.015950968
0.015950968
-0.0030084358
0.01591858
0.0030408238
-0.002976048
0.01591858
-0.00294366
0.01591858
-0.0029112721
0.01591858
-0.0028788843
0.01591858
0.01591858
-0.0030094974
0.015887254
0.0030408237
-0.002978171
0.015887254
-0.0029468447
0.015887254
-0.0029155183
0.015887254
-0.0028841918
0.015887253
-0.0028528655
0.015887254
0.015887254
-0.0030122295
0.015858659
0.0030408238
-0.0029836352
0.015858659
-0.0029550407
0.015858659
-0.0029264464
0.015858659
-0.0028978521
0.015858659
-0.0028692578
0.015858659
-0.0028406634
0.015858659
0.015858659
-0.0030142384
0.015832074
0.0030408237
-0.002987653
0.015832074
-0.0029610676
0.015832074
-0.0029344823
0.015832074
-0.0029078968
0.015832074
-0.0028813115
0.015832074
-0.0028547261
0.015832074
-0.0028281405
0.015832074
0.015832074