/*--------------------------------*- C++ -*----------------------------------*\
| =========                 |                                                 |
| \\      /  F ield         | OpenFOAM: The Open Source CFD Toolbox           |
|  \\    /   O peration     | Version:  2206                                  |
|   \\  /    A nd           | Website:  www.openfoam.com                      |
|    \\/     M anipulation  |                                                 |
\*---------------------------------------------------------------------------*/
FoamFile
{
    version     2.0;
    format      ascii;
    arch        "LSB;label=32;scalar=64";
    class       volScalarField;
    location    "0.01";
    object      rho;
}
// * * * * * * * * * * * * * * * * * * * * * * * * * * * * * * * * * * * * * //

dimensions      [1 -3 0 0 0 0 0];

internalField   nonuniform List<scalar> 
1396
(
0.98408894
0.99587086
0.99890532
0.99908818
0.99917228
0.99957255
0.99985213
0.99995845
0.99998931
0.99999703
0.99999867
0.98630783
0.99442583
0.9982409
0.99896289
0.99922057
0.99960181
0.99986047
0.99996253
0.99999169
0.99999756
0.99999869
0.9893132
0.99465747
0.99778668
0.99874348
0.9992237
0.99962032
0.999868
0.99996571
0.9999922
0.99999752
0.99999854
0.99153132
0.99483645
0.99749147
0.99860348
0.99923073
0.99963826
0.99987726
0.99996887
0.99999258
0.99999726
0.99999821
0.99323602
0.99531858
0.99727935
0.99844274
0.99920512
0.99965104
0.99988702
0.99997143
0.99999251
0.99999651
0.99999748
0.99448007
0.99578495
0.99713738
0.99827578
0.9991609
0.99966093
0.99989679
0.9999732
0.99999165
0.99999482
0.99999578
0.99537941
0.99605422
0.99699945
0.99810996
0.99911083
0.99967029
0.99990584
0.99997364
0.99998939
0.99999161
0.9999921
0.99594748
0.99610008
0.99684554
0.99798134
0.99907854
0.99968145
0.99991281
0.9999722
0.99998453
0.99998522
0.99998461
0.99606141
0.99585609
0.99670848
0.99792504
0.99907439
0.99969358
0.99991644
0.99996775
0.99997639
0.99997275
0.99996953
0.99555152
0.99542508
0.99661013
0.99793188
0.99909149
0.99970459
0.99991609
0.99995843
0.99996178
0.99995009
0.99994016
0.99461269
0.99497094
0.99659314
0.99797625
0.99911713
0.99971261
0.99991139
0.99994192
0.99993546
0.99991003
0.99988529
0.99359464
0.99470752
0.99666139
0.99805123
0.99914641
0.99971776
0.99990242
0.99992007
0.99989228
0.99984208
0.99978765
0.992579
0.99465127
0.99678463
0.99814769
0.99918261
0.99972185
0.99988639
0.99988443
0.99982635
0.99973097
0.9996184
0.99477589
0.99691287
0.99825958
0.99922663
0.99971966
0.99985793
0.99982711
0.99972125
0.99954534
0.99932069
0.99999892
0.99999882
0.99999855
0.99999785
0.99999628
0.99999281
0.99998542
0.99997031
0.99994007
0.99988064
0.99976855
0.99956737
0.99920608
0.99854429
0.99999885
0.99999862
0.99999798
0.99999643
0.9999928
0.99998463
0.99996678
0.99992893
0.99985076
0.99969429
0.99939693
0.99886231
0.9979142
0.99630557
0.99999871
0.99999827
0.99999703
0.99999392
0.99998646
0.9999692
0.99993064
0.99984756
0.9996746
0.99932967
0.99868321
0.9975443
0.99561417
0.99255595
0.99999854
0.99999783
0.99999577
0.99999047
0.99997738
0.99994641
0.99987604
0.99972269
0.99940274
0.99876939
0.9976
0.99558738
0.99231827
0.98740981
0.99999842
0.99999747
0.99999463
0.9999871
0.99996801
0.99992175
0.99981467
0.99957847
0.99908358
0.99810858
0.99632991
0.9933296
0.98861114
0.98177536
0.99999838
0.99999731
0.99999401
0.99998495
0.99996129
0.99990247
0.99976338
0.99945182
0.99879348
0.99749532
0.99513998
0.99121399
0.98516103
0.97657883
0.99999844
0.9999974
0.99999409
0.99998466
0.99995925
0.99989425
0.99973674
0.99937684
0.9986054
0.99707144
0.99427914
0.9896341
0.98252895
0.97255785
0.99999856
0.99999767
0.99999476
0.99998615
0.99996215
0.99989879
0.99974089
0.99937101
0.99856148
0.99692452
0.99390641
0.98884386
0.9810743
0.97017236
0.9999987
0.99999803
0.99999577
0.99998881
0.99996869
0.99991377
0.9997725
0.99943167
0.99866491
0.99707467
0.99407599
0.98895071
0.98097066
0.96966157
0.99999882
0.99999837
0.99999682
0.99999186
0.99997694
0.99993474
0.9998224
0.99954213
0.99889002
0.99749123
0.99476638
0.98996768
0.98229588
0.97119186
0.99999892
0.99999865
0.99999769
0.99999456
0.99998475
0.99995594
0.9998764
0.99967053
0.99917276
0.9980604
0.99580075
0.99165465
0.98476238
0.97445318
0.99999898
0.99999883
0.9999983
0.99999654
0.99999083
0.99997336
0.9999233
0.99978877
0.99945004
0.99865801
0.99696835
0.99370645
0.98799505
0.97905067
0.99999901
0.99999894
0.99999868
0.99999777
0.99999478
0.99998524
0.99995675
0.99987707
0.99966771
0.99915392
0.99799699
0.99562947
0.99121202
0.98387219
0.99999903
0.999999
0.99999887
0.99999843
0.99999691
0.99999204
0.99997731
0.99993552
0.99982447
0.9995488
0.99891576
0.99757654
0.99493018
0.9902152
0.99999904
0.99999904
0.99999903
0.99999899
0.99999885
0.99999829
0.99999632
0.99998975
0.99996898
0.99990633
0.99972462
0.99922078
0.99797462
0.99527593
0.99999904
0.99999904
0.99999904
0.99999904
0.99999902
0.99999895
0.99999861
0.99999722
0.99999182
0.99997254
0.99990918
0.99971499
0.99919923
0.99789679
0.99999904
0.99999904
0.99999904
0.99999904
0.99999904
0.99999903
0.99999899
0.99999879
0.99999783
0.99999375
0.99997753
0.99992114
0.99975469
0.99924902
0.99999904
0.99999904
0.99999904
0.99999904
0.99999904
0.99999904
0.99999904
0.99999901
0.99999886
0.99999813
0.99999491
0.99998172
0.99993464
0.99976623
0.99999904
0.99999904
0.99999904
0.99999904
0.99999904
0.99999904
0.99999904
0.99999904
0.99999902
0.99999889
0.99999826
0.99999529
0.99998343
0.9999344
0.99999904
0.99999904
0.99999904
0.99999904
0.99999904
0.99999904
0.99999904
0.99999904
0.99999904
0.99999902
0.99999891
0.99999832
0.99999572
0.99998263
0.99677153
0.99138501
0.98047886
0.96240016
0.9383471
0.9121554
0.88684262
0.86493044
0.85175387
0.84420571
0.85937256
0.87115801
0.8671034
0.83876584
0.99252622
0.98277001
0.96597135
0.94242931
0.91542722
0.88834956
0.86339652
0.84288506
0.83414409
0.82947813
0.8482153
0.85847994
0.85158042
0.81733641
0.98594557
0.97133256
0.949413
0.92254297
0.89427229
0.86698885
0.84284059
0.82367404
0.81968485
0.81915473
0.83854131
0.84407639
0.83702278
0.80112315
0.97760177
0.95849745
0.93293837
0.90430196
0.87545931
0.84824075
0.82517367
0.80736504
0.80724491
0.81108044
0.82919899
0.82843956
0.82258341
0.78749615
0.96896474
0.94643966
0.91866628
0.88911036
0.85996914
0.83285405
0.81073145
0.79368547
0.79635176
0.80535081
0.82118833
0.81486149
0.81055323
0.77722574
0.96130069
0.93644054
0.90733783
0.8771931
0.84777859
0.82060078
0.79907026
0.78237966
0.7868277
0.8000333
0.81336115
0.80328799
0.79979072
0.76792701
0.95547053
0.92908342
0.89908932
0.86841326
0.8385962
0.81105647
0.78941083
0.772523
0.77863707
0.7937481
0.80553609
0.79341626
0.79019293
0.75888871
0.95192595
0.9245372
0.89381391
0.86251071
0.83204879
0.80373611
0.78101807
0.76385641
0.77030071
0.78613493
0.7976109
0.78479534
0.78136934
0.74906512
0.9508866
0.92286111
0.89143927
0.85933732
0.82792021
0.79841337
0.77386467
0.75533923
0.76091006
0.77681912
0.78936033
0.77728743
0.77307397
0.73804172
0.95260421
0.9243634
0.8923202
0.85930392
0.82668969
0.79563894
0.7687571
0.74750388
0.75083214
0.76623672
0.78098433
0.77183917
0.76614538
0.72682605
0.95677711
0.92881094
0.89626688
0.86224443
0.82823018
0.79530498
0.76592253
0.74053695
0.74010812
0.75376255
0.77104452
0.76744118
0.75958991
0.7146057
0.96310615
0.93620811
0.90352909
0.86855809
0.8330665
0.79812547
0.76611418
0.73572161
0.72988821
0.74009946
0.75931736
0.7644066
0.75438565
0.7036932
0.97013426
0.94505173
0.91271894
0.87699114
0.84013945
0.80330375
0.7687262
0.73352774
0.72083969
0.72519295
0.74513895
0.7604065
0.74969407
0.69374217
0.98102685
0.960641
0.93083534
0.8951099
0.85679222
0.8174522
0.77909881
0.73932947
0.71649145
0.71089124
0.72983208
0.75475714
0.74680715
0.68723148
0.99999904
0.99999904
0.99999904
0.99999904
0.99999904
0.99999904
0.99999904
0.99999904
0.99999904
0.99999904
0.99999904
0.99999904
0.99999904
0.99999904
0.99999904
0.99999904
0.99999904
0.99999904
0.99999904
0.99999904
0.99999904
0.99999904
0.99999904
0.99999904
0.99999904
0.99999904
0.99999904
0.99999904
0.99999904
0.99999904
0.99999904
0.99999904
0.99999904
0.99999904
0.99999904
0.99999904
0.99999904
0.99999904
0.99999904
0.99999904
0.99999904
0.99999904
0.99999904
0.99999904
0.99999904
0.99999904
0.99999904
0.99999904
0.99999904
0.99999904
0.99999904
0.99999904
0.99999904
0.99999904
0.99999904
0.99999904
0.99999904
0.99999904
0.99999904
0.99999904
0.99999904
0.99999904
0.99999904
0.99999904
0.99999904
0.99999904
0.99999904
0.99999904
0.99999904
0.99999904
0.99999904
0.99999904
0.99999904
0.99999904
0.99999904
0.99999904
0.99999904
0.99999904
0.99999904
0.99999904
0.99999904
0.99999904
0.99999904
0.99999904
0.99999904
0.99999904
0.99999904
0.99999904
0.99999904
0.99999904
0.99999904
0.99999904
0.99999904
0.99999904
0.99999904
0.99999904
0.99999904
0.99999904
0.99999904
0.99999904
0.99999904
0.99999904
0.99999904
0.99999904
0.99999904
0.99999904
0.99999904
0.99999904
0.99999904
0.99999904
0.99999904
0.99999904
0.99999904
0.99999904
0.99999904
0.99999904
0.99999904
0.99999904
0.99999904
0.99999904
0.99999904
0.99999904
0.99999904
0.99999904
0.99999904
0.99999904
0.99999904
0.99999904
0.99999904
0.99999904
0.99999904
0.99999904
0.99999904
0.99999904
0.99999904
0.99999904
0.99999904
0.99999904
0.99999904
0.99999904
0.99999904
0.99999904
0.99999904
0.99999904
0.99999904
0.99999904
0.99999904
0.99999904
0.99999904
0.99999904
0.99999904
0.99999904
0.99999904
0.99999904
0.99999904
0.99999904
0.99999904
0.99999904
0.99999904
0.99999904
0.99999904
0.99999904
0.99999904
0.99999904
0.99999903
0.99999902
0.99999901
0.99999904
0.99999904
0.99999904
0.99999904
0.99999904
0.99999904
0.99999904
0.99999904
0.99999904
0.99999903
0.99999897
0.99999886
0.99999866
0.99999837
0.99999904
0.99999904
0.99999904
0.99999904
0.99999904
0.99999905
0.99999906
0.99999909
0.9999991
0.99999901
0.9999982
0.99999442
0.99998361
0.9999677
0.99999904
0.99999904
0.99999904
0.99999904
0.99999901
0.9999989
0.99999855
0.9999972
0.99999277
0.99998383
0.99996668
0.99989521
0.99971131
0.99951864
0.99999904
0.99999906
0.9999991
0.9999992
0.99999939
0.99999932
0.99999613
0.99997691
0.99991822
0.99984567
0.99990203
1.000143
0.99995242
0.99849107
0.99999903
0.99999904
0.99999927
1.0000007
1.0000068
1.0000288
1.0000878
1.0001492
1.0000717
1.0002542
1.0030347
1.0103594
0.9957096
0.99650141
0.99745457
0.99807181
0.99672136
0.99259912
0.98352817
0.96974129
0.95436968
0.94107536
0.93380965
0.92756817
0.93579594
0.99762337
0.99800407
0.99817482
0.99764392
0.99519206
0.98873328
0.97674608
0.96042837
0.94352502
0.92943178
0.9234196
0.91817243
0.92795513
0.92598797
0.9986127
0.99882616
0.99861951
0.99718969
0.99306292
0.98399074
0.96905456
0.95062625
0.9326004
0.91808795
0.9136871
0.91002134
0.92067978
0.91705401
0.9993627
0.99929349
0.99855655
0.99609635
0.98997833
0.97813524
0.96051553
0.9404747
0.92173739
0.90715434
0.90467706
0.9031727
0.9141773
0.90876201
0.99969711
0.99932573
0.99800113
0.9942432
0.98592304
0.97128274
0.95139533
0.9301723
0.91112581
0.89683696
0.89652021
0.89761756
0.90821624
0.89977775
0.9997059
0.99904481
0.99694568
0.99166288
0.98093675
0.9636217
0.9419217
0.91987093
0.90088778
0.88716637
0.88917182
0.89291649
0.90233657
0.8902967
0.99956675
0.99849025
0.99543139
0.98835966
0.97509442
0.95536545
0.93227522
0.90968088
0.8911015
0.87808515
0.88270729
0.88895539
0.89644664
0.88119528
0.99930094
0.99768229
0.99344398
0.98435688
0.96854803
0.94677063
0.92266014
0.89977495
0.88192706
0.86972024
0.8771496
0.88571329
0.89062148
0.87212652
0.9988916
0.99655915
0.99089289
0.97959782
0.961343
0.93789939
0.91306554
0.89010107
0.87323769
0.86196924
0.87204951
0.8823247
0.88442229
0.8627166
0.99837306
0.99520702
0.98797799
0.97444142
0.95395184
0.92912996
0.90371371
0.88075824
0.86501823
0.85462066
0.86700379
0.87830856
0.87794056
0.85329237
0.99999904
0.99999904
0.99999904
0.99999904
0.97467387
0.95157313
0.92037183
0.88415442
0.84601553
0.80743086
0.76968952
0.73444007
0.71250506
0.69683851
0.7213852
0.74985662
0.74198938
0.67891869
0.96609307
0.93997527
0.90704418
0.87036556
0.83237542
0.7942737
0.75744772
0.72338608
0.70264868
0.69017114
0.71502009
0.74500677
0.73526761
0.66797182
0.98694796
0.98181516
0.9937767
0.99127306
0.99745025
0.99635086
0.99910984
0.99972711
0.99999904
0.99999904
0.99999904
0.99999904
0.99999904
0.99999904
0.99999904
0.99999904
0.99999904
0.99999904
0.99999904
0.99999904
0.99999904
0.99999904
0.99999904
0.99999904
0.99999904
0.99999904
0.99999904
0.99999904
0.99999904
0.99999904
0.99999904
0.99999904
0.99999904
0.99999904
0.99999904
0.99999904
0.99999904
0.99999904
0.99999904
0.99999904
0.99999904
0.99999904
0.99999904
0.99999904
0.99999904
0.99999904
0.99999901
0.99999904
0.99999904
0.99999904
0.99999904
0.99999904
0.99999904
0.99999904
0.99999904
0.99999901
0.99999792
0.99999904
0.99999904
0.99999904
0.99999904
0.99999904
0.99999904
0.99999904
0.99999904
0.99999902
0.99999804
0.99995393
0.99999904
0.99999904
0.99999904
0.99999904
0.99999904
0.99999904
0.99999904
0.99999904
0.99999902
0.99999799
0.99994994
0.99942263
0.99999904
0.99999904
0.99999904
0.99999904
0.99999904
0.99999904
0.99999904
0.99999904
0.99999904
0.99999904
0.99999904
0.99999904
0.99999904
0.99999904
0.99999904
0.99999904
0.99999904
0.99999904
0.99999904
0.99999904
0.99999904
0.99999904
0.99999904
0.99999904
0.99999904
0.99999904
0.99999904
0.99999904
0.99999904
0.99999904
0.99999904
0.99999904
0.99999904
0.99999904
0.99999904
0.99999904
0.99999904
0.99999904
0.99999904
0.99999904
0.99999904
0.99999904
0.99999904
0.99999904
0.99999904
0.99999904
0.99999904
0.99999904
0.99999904
0.99999904
0.99999904
0.99999904
0.99999904
1.1877141
1.0060107
1.0026155
1.0000224
0.99999956
0.99999905
0.99999904
0.99999904
0.99999904
0.99999904
0.99999904
0.99999904
0.99999904
0.99999904
1.1596888
1.0050299
1.0019447
1.0000161
0.9999994
0.99999904
0.99999904
0.99999904
0.99999904
0.99999904
0.99999904
0.99999904
0.99999904
0.99999904
1.137663
1.0042653
1.001493
1.0000119
0.9999993
0.99999904
0.99999904
0.99999904
0.99999904
0.99999904
0.99999904
0.99999904
0.99999904
0.99999904
1.119939
1.0036612
1.0011736
1.0000091
0.99999923
0.99999904
0.99999904
0.99999904
0.99999904
0.99999904
0.99999904
0.99999904
0.99999904
0.99999904
1.1060204
1.0031738
1.0009465
1.000007
0.99999919
0.99999904
0.99999904
0.99999904
0.99999904
0.99999904
0.99999904
0.99999904
0.99999904
0.99999904
1.09522
1.0027803
1.0007827
1.0000055
0.99999916
0.99999904
0.99999904
0.99999904
0.99999904
0.99999904
0.99999904
0.99999904
0.99999904
0.99999904
1.0875363
1.0024655
1.0006663
1.0000043
0.99999914
0.99999904
0.99999904
0.99999904
0.99999904
0.99999904
0.99999904
0.99999904
0.99999904
0.99999904
0.99999904
0.99999904
0.99999904
0.99999904
0.99999904
0.99999904
0.99999904
0.99999904
0.99999904
0.99999904
0.99999904
0.99999904
0.99999904
0.99999904
0.99999904
0.99999904
0.99999904
0.99999904
0.99999904
0.99999904
0.99999904
0.99999904
0.99999904
0.99999904
0.99999904
0.99999904
0.99999904
0.99999904
0.99999904
0.99999904
0.99999904
0.99999904
0.99999904
0.99999904
0.99999904
0.99999904
0.99999904
0.99999904
0.99999904
0.99999904
0.99999904
0.99999904
0.99999904
0.99999904
0.99999904
0.99999904
0.99999904
0.99999904
0.99999904
0.99999904
0.99999904
0.99999904
0.99999904
0.99999904
0.99999904
0.99999904
0.99999904
0.99999904
0.99999904
0.99999904
0.99999904
0.99999904
0.99999904
0.99999904
0.99999904
0.99999904
0.99999904
0.99999904
0.99999904
0.99999904
0.99999904
0.99999904
0.99999904
0.99999904
0.99999904
0.99999904
0.99999904
0.99999904
0.99999904
0.99999904
0.99999904
0.99999904
0.99999904
0.99999904
0.99999904
0.99999904
0.99999904
0.99999904
0.99999904
0.99999904
0.99999904
0.99999904
0.99999904
0.99999904
0.99999904
0.99999904
0.99999904
0.99999904
0.99999904
0.99999904
0.99999904
0.99999904
0.99999904
0.99999904
0.99999904
0.99999904
0.99999904
0.99999904
0.99999904
0.99999904
0.99999904
0.99999904
0.99999904
0.99999904
0.99999904
0.99999904
0.99999904
0.99999904
0.99999904
0.99999904
0.99999904
0.99999904
0.99999904
0.99999904
0.99999904
0.99999904
0.99999904
0.99999904
0.99999904
0.99999904
)
;

boundaryField
{
    Side
    {
        type            empty;
    }
    Inlet
    {
        type            calculated;
        value           nonuniform List<scalar> 
15
(
0.99999904
0.99999904
0.99999904
0.99999904
0.99999904
0.99999904
0.99999904
0.99999904
0.99999904
0.99999904
0.99999904
0.99999904
0.99999904
0.99999904
0.99999904
)
;
    }
    Airfoil
    {
        type            calculated;
        value           nonuniform List<scalar> 0();
    }
    Outlet
    {
        type            calculated;
        value           nonuniform List<scalar> 0();
    }
    Flap
    {
        type            calculated;
        value           nonuniform List<scalar> 
32
(
0.79310683
0.76903982
0.75025614
0.73436189
0.72175014
0.71033942
0.69932403
0.68770904
0.67512103
0.66213606
0.64830199
0.63564359
0.62437623
0.61647852
0.90833084
0.89658748
0.88521499
0.87306552
0.86066835
0.84869858
0.83671479
0.82462242
0.81286935
0.60926446
0.59923313
1.2631072
1.2240451
1.1932794
1.1685808
1.1491934
1.1342241
1.1235606
)
;
    }
    procBoundary3to2
    {
        type            processor;
        value           nonuniform List<scalar> 
113
(
0.99999904
0.99999904
0.9466277
0.9466277
0.95537544
0.95953237
0.96481083
0.96887142
0.97212184
0.97503059
0.97805156
0.98120394
0.98373573
0.98569877
0.98684902
0.98705244
0.99178744
0.99178744
1.0094569
0.97952763
0.99494553
1.0094569
0.99264825
0.99343117
0.99642932
0.9992089
0.9995636
0.99700763
0.99009157
0.97866918
0.96503754
0.95279638
0.94481269
0.93817961
0.94428004
0.93306942
0.93306942
0.99999904
0.99999904
0.99999904
0.99999904
0.99999904
0.99999904
0.99999904
0.99999904
0.99999904
0.99999904
0.99999904
0.99999904
0.99999904
0.99999904
0.99999901
0.99999901
0.99999788
0.99999788
0.99994798
0.99994798
0.99937773
0.99937773
0.99494553
0.99999904
0.99999904
0.99999904
0.99999904
0.99999904
0.99999904
0.99999904
0.99999904
0.99999904
0.99999904
0.99999904
0.99999904
0.99999904
0.99999904
0.99999904
1.0821632
1.0022127
1.0005896
1.0000036
0.99999914
0.99999904
0.99999904
0.99999904
0.99999904
0.99999904
0.99999904
0.99999904
0.99999904
0.99999904
0.99999904
0.99999904
0.99999904
0.99999904
0.99999904
0.99999904
0.99999904
0.99999904
0.99999904
0.99999904
0.99999904
0.99999904
0.99999904
0.99999904
0.99999904
0.99999904
0.99999904
0.99999904
0.99999904
0.99999904
0.99999904
0.99999904
0.99999904
0.99999904
)
;
    }
    procBoundary3to4
    {
        type            processor;
        value           nonuniform List<scalar> 
142
(
0.99999904
0.99999904
0.99999904
0.99999904
0.99999904
0.99999904
0.99999904
0.99999904
0.99999904
0.99999904
0.99999904
0.99999904
0.99999902
0.99999891
0.99999838
0.99999517
0.99992441
0.99999904
0.99999904
0.99999904
0.99999904
0.99999904
0.99999904
0.99999904
0.99999904
0.99999904
0.99999904
0.99999904
0.99999904
0.99999904
0.99999904
0.99999904
0.99999904
0.99999904
0.99999904
0.99999904
0.99999904
0.99999904
0.99999904
0.99999904
0.99999904
0.99999904
0.99999904
0.99999904
0.99999904
0.99999904
0.99999904
0.99999904
0.99999904
0.99999904
0.99999904
0.99999904
0.99999904
0.99999904
0.99999904
0.99999904
0.99999904
0.99999904
0.99999904
0.99999904
0.99999904
0.99999904
0.99999904
0.9566926
0.92784938
0.89344842
0.85638823
0.81852221
0.78085901
0.74495608
0.7122365
0.6933497
0.68710602
0.71268439
0.73914209
0.7272624
0.65867058
0.97553525
0.98748273
0.99437447
0.99869097
0.99869097
0.99958126
0.99992441
0.99999904
0.99999904
0.99999904
0.99999904
0.99999904
0.99999904
0.99999904
0.99999904
0.99999904
0.99999904
0.99999904
0.99999904
0.99999904
0.99999904
0.99999904
0.99999904
0.99999904
0.99999904
0.99999904
0.99999904
0.99999904
0.99999904
0.99999904
0.99999904
0.99999904
0.99999904
1.2220339
1.0073336
1.0036241
1.0000326
0.99999985
0.99999905
0.99999904
0.99999904
0.99999904
0.99999904
0.99999904
0.99999904
0.99999904
0.99999904
0.99999904
0.99999904
0.99999904
0.99999904
0.99999904
0.99999904
0.99999904
0.99999904
0.99999904
0.99999904
0.99999904
0.99999904
0.99999904
0.99999904
0.99999904
0.99999904
0.99999904
0.99999904
)
;
    }
}


// ************************************************************************* //
