/*--------------------------------*- C++ -*----------------------------------*\
| =========                 |                                                 |
| \\      /  F ield         | OpenFOAM: The Open Source CFD Toolbox           |
|  \\    /   O peration     | Version:  2206                                  |
|   \\  /    A nd           | Website:  www.openfoam.com                      |
|    \\/     M anipulation  |                                                 |
\*---------------------------------------------------------------------------*/
FoamFile
{
    version     2.0;
    format      ascii;
    arch        "LSB;label=32;scalar=64";
    class       volScalarField;
    location    "0.01";
    object      T;
}
// * * * * * * * * * * * * * * * * * * * * * * * * * * * * * * * * * * * * * //

dimensions      [0 0 0 1 0 0 0];

internalField   nonuniform List<scalar> 
1396
(
1.0078387
0.99793109
0.99554339
0.99661239
0.99814834
0.99916479
0.99969401
0.9999139
0.99998147
0.99999621
0.99999918
1.0058858
0.99934615
0.99622226
0.99670292
0.99811542
0.99916557
0.99970838
0.99992166
0.99998242
0.99999628
0.99999917
1.003139
0.99909329
0.9966918
0.99688089
0.99812436
0.99917464
0.99972102
0.99992838
0.99998414
0.99999643
0.99999907
1.0012431
0.99890905
0.99698483
0.99702448
0.99814776
0.99919193
0.99973518
0.99993468
0.99998536
0.99999625
0.99999869
0.99987868
0.99844722
0.99719469
0.99719876
0.99821424
0.99921818
0.99974966
0.99994019
0.99998597
0.99999551
0.99999768
0.99898562
0.99803616
0.99734275
0.99739386
0.99831045
0.99925223
0.9997643
0.9999447
0.99998561
0.99999383
0.99999561
0.99843772
0.99785477
0.99749595
0.99760445
0.99842148
0.99929096
0.99977893
0.99994781
0.99998377
0.99999013
0.99999139
0.99822126
0.99792694
0.99768147
0.9977933
0.99852273
0.99933103
0.99979367
0.99994884
0.99997985
0.99998327
0.99998288
0.99848098
0.99830397
0.99787078
0.99792457
0.99860359
0.99937178
0.99980808
0.99994683
0.99997102
0.99997104
0.99996656
0.99939025
0.9988835
0.99802875
0.99800422
0.99866979
0.99941308
0.99982056
0.99994076
0.9999556
0.99994862
0.99993597
1.0007818
0.99948551
0.99810482
0.99805816
0.9987317
0.99945404
0.99982888
0.9999285
0.99993056
0.999909
0.99988
1.002314
0.99988914
0.9981122
0.99809448
0.99879469
0.99949272
0.99982982
0.99990039
0.99988737
0.99983939
0.99977821
1.0039134
1.0000948
0.99809938
0.99812733
0.9988574
0.99952474
0.9998174
0.99985107
0.99980691
0.99971262
0.9995904
1.0001624
0.99811943
0.99815831
0.99890874
0.99954321
0.99977982
0.99977014
0.99966927
0.99949529
0.99926502
0.99999978
0.99999961
0.99999917
0.9999982
0.99999606
0.9999915
0.99998214
0.99996359
0.99992766
0.99986008
0.99973656
0.99951448
0.99911868
0.99846534
0.99999971
0.99999932
0.99999835
0.9999961
0.99999109
0.99998027
0.99995761
0.99991161
0.99982135
0.99965108
0.99934308
0.99880518
0.99789858
0.99647864
0.99999947
0.99999871
0.9999968
0.99999224
0.99998181
0.99995881
0.99990991
0.99980998
0.99961478
0.99925244
0.99861486
0.99754742
0.99584496
0.99331642
0.99999917
0.99999793
0.99999467
0.99998672
0.99996814
0.99992647
0.99983703
0.99965409
0.99929979
0.99865448
0.99755283
0.99578517
0.99310104
0.98928753
0.99999892
0.9999972
0.99999257
0.99998096
0.9999532
0.99988986
0.9997524
0.99947041
0.99892739
0.99795293
0.99632883
0.99380548
0.99011048
0.98504009
0.99999882
0.9999968
0.99999122
0.9999768
0.99994143
0.99985906
0.99967771
0.99930273
0.99858034
0.99729314
0.99517799
0.99195774
0.98735571
0.98119977
0.99999888
0.99999685
0.99999103
0.9999755
0.99993632
0.99984282
0.9996329
0.99919265
0.99833743
0.99680991
0.99430827
0.99053269
0.98520843
0.97819852
0.99999907
0.99999729
0.99999195
0.99997725
0.99993894
0.99984488
0.99962833
0.99916444
0.99824785
0.99659029
0.99385514
0.98971695
0.98389632
0.97627663
0.99999931
0.99999793
0.99999361
0.99998125
0.99994792
0.99986334
0.9996626
0.99922025
0.99832344
0.99666471
0.99387656
0.98960031
0.98353514
0.97555683
0.99999954
0.99999859
0.99999551
0.99998629
0.9999605
0.99989267
0.9997259
0.99934537
0.99854697
0.99702091
0.99437762
0.99021813
0.98419813
0.97614886
0.99999973
0.99999914
0.99999719
0.9999911
0.99997335
0.99992484
0.99980082
0.99950619
0.99886158
0.99757594
0.99525494
0.99146129
0.98578969
0.97799135
0.99999985
0.99999953
0.99999842
0.99999486
0.99998401
0.99995313
0.99987089
0.99966685
0.99919897
0.99821764
0.99635191
0.99314497
0.98812807
0.98094877
0.99999993
0.99999977
0.9999992
0.99999733
0.99999139
0.99997371
0.99992455
0.99979685
0.99948884
0.99880564
0.99742633
0.99490585
0.99073102
0.9844546
0.99999997
0.99999989
0.99999962
0.99999867
0.99999563
0.99998636
0.99995995
0.99988965
0.99971522
0.99931369
0.99846333
0.99682455
0.99397764
0.98946782
1
0.99999998
0.99999993
0.99999974
0.99999908
0.99999693
0.99999035
0.99997138
0.99991984
0.99978782
0.99946969
0.99875608
0.99728925
0.99442266
1
1
0.99999999
0.99999997
0.99999987
0.99999951
0.99999826
0.99999414
0.99998122
0.99994284
0.99983479
0.9995505
0.99885947
0.99720489
1
1
1
1
0.99999999
0.99999994
0.99999976
0.99999908
0.99999664
0.99998802
0.99995911
0.99986583
0.99959454
0.99880487
1
1
1
1
1
0.99999999
0.99999997
0.99999986
0.99999942
0.99999764
0.99999077
0.99996522
0.99987703
0.99956063
1
1
1
1
1
1
1
0.99999998
0.9999999
0.99999956
0.99999808
0.9999919
0.99996699
0.99986168
1
1
1
1
1
1
1
1
0.99999999
0.99999992
0.99999963
0.99999824
0.99999182
0.99996235
0.99705788
0.99309856
0.98637856
0.97703526
0.9664205
0.95594267
0.94643045
0.93892654
0.93556834
0.93623128
0.94326367
0.9519986
0.94535966
0.94556406
0.99373899
0.98736882
0.97817165
0.9672132
0.95597392
0.94535455
0.93611074
0.92933675
0.92785313
0.93073476
0.9383259
0.94618843
0.93856497
0.94090978
0.98898814
0.98024385
0.96919708
0.95729588
0.94564011
0.93487683
0.92593703
0.91988895
0.92044444
0.92610741
0.9335908
0.93908957
0.93173081
0.93650538
0.98333265
0.9726828
0.96045569
0.94797392
0.93597777
0.92509275
0.91652648
0.91103472
0.91347713
0.9216493
0.92914081
0.93179272
0.9248316
0.93252758
0.97766124
0.96567437
0.95268535
0.93974962
0.92742451
0.91637453
0.90810056
0.9028936
0.90701601
0.91728842
0.92463187
0.9250701
0.91795405
0.92862356
0.97268343
0.95978895
0.94624612
0.93289621
0.92023152
0.9089498
0.90083835
0.89586634
0.90106027
0.91300266
0.92016669
0.91929792
0.91169645
0.92500903
0.96880708
0.9552535
0.94123074
0.92745388
0.91440086
0.90276606
0.89425508
0.88988495
0.89558072
0.9086829
0.91592418
0.91436975
0.90626235
0.92151065
0.96622038
0.9521211
0.93760918
0.92334402
0.90980119
0.89767108
0.88842126
0.88432096
0.8901312
0.90406906
0.91185249
0.91013098
0.90159876
0.91808979
0.9650157
0.95040898
0.93535005
0.920497
0.90632141
0.89350914
0.88319568
0.8787474
0.8842991
0.8988203
0.90786034
0.90652641
0.89774137
0.91474644
0.9653238
0.95023688
0.93455689
0.91899735
0.90402332
0.89028315
0.87866361
0.87297997
0.87776037
0.89242797
0.90337713
0.90326213
0.89438929
0.91099661
0.96713951
0.95165002
0.93530537
0.91894751
0.90304706
0.88823292
0.87513646
0.86735922
0.87070553
0.88499875
0.89806364
0.90059223
0.89178883
0.90721638
0.9704292
0.95472749
0.93771952
0.92048448
0.90353954
0.88747328
0.87292088
0.86223914
0.86338706
0.87635865
0.89108285
0.89832366
0.88966466
0.90329648
0.97466144
0.95911073
0.94161102
0.92357709
0.90563527
0.88834572
0.87246217
0.85859019
0.85677703
0.86732809
0.88224177
0.89611879
0.88784371
0.90001193
0.98129281
0.96664412
0.94865691
0.92932821
0.90972066
0.89049579
0.87271669
0.85506687
0.84868525
0.85528462
0.86891638
0.89144515
0.88572016
0.89704639
1
1
1
1
1
1
1
1
1
1
1
1
1
1
1
1
1
1
1
1
1
1
1
1
1
1
1
1
1
1
1
1
1
1
1
1
1
1
1
1
1
1
1
1
1
1
1
1
1
1
1
1
1
1
1
1
1
0.99999998
1
0.99999999
0.99999999
0.99999999
0.99999999
0.99999999
0.99999999
0.99999999
1
1
1
1
1
1
1
1
1
1
1
1
1
1
1
1
1
1
1
1
1
1
1
1
1
1
1
1
1
1
1
1
1
1
1
1
1
1
1
1
1
1
1
1
1
1
1
1
1
1
1
1
1
1
1
1
1
1
1
1
1
1
1
1
1
1
1
1
1
1
1
1
1
1
1
1
1
1
1
1
1
1
1
1
1
1
1
1
1
1
1
1
1
1
1
1
1
1
0.99999999
0.99999998
0.99999998
1
1
1
1
1
1
1
1
0.99999998
0.99999995
0.99999986
0.99999971
0.99999947
0.99999919
1
1
1
1
1
0.99999999
0.99999996
0.99999984
0.99999948
0.9999985
0.99999611
0.99999134
0.99998419
0.99997657
1
1
1
0.99999999
0.99999989
0.99999948
0.9999981
0.99999419
0.99998485
0.99996547
0.999927
0.99985896
0.99977186
0.99968335
1
1
1
0.99999995
0.99999921
0.99999526
0.99998002
0.99993705
0.99983287
0.99957508
0.99894008
0.99780523
0.996381
0.99510678
0.99999986
0.99999952
0.99999851
0.99999554
0.99998597
0.99995311
0.99984612
0.99957343
0.99904738
0.99713448
0.99202785
0.98589395
1.0003362
1.0025931
1.0032801
1.0018198
1.0001184
0.99691435
0.99256964
0.9875916
0.98331234
0.98064553
0.98035624
0.98148032
0.98203737
0.99802281
0.99892811
0.9994145
0.99896831
0.99733626
0.9940289
0.9890357
0.98349061
0.97879513
0.97590979
0.97590963
0.97779992
0.97827977
0.98093158
0.99819926
0.99859936
0.99874844
0.99798602
0.99564171
0.99135324
0.98541464
0.97926458
0.97420391
0.97120971
0.97161103
0.97437912
0.97465339
0.9776823
0.99894814
0.99903627
0.99868593
0.99720012
0.99386901
0.98839434
0.98155799
0.97489401
0.96958072
0.96661995
0.96755233
0.97141597
0.97134161
0.9740889
0.9995169
0.9993047
0.99837105
0.9960606
0.99162145
0.98502777
0.97745099
0.970383
0.96494093
0.96213036
0.96370008
0.9687905
0.96806766
0.97031241
0.99968773
0.99915059
0.99767681
0.994464
0.98889425
0.98132103
0.97316676
0.96579775
0.9603504
0.95778593
0.96012056
0.96633995
0.96485922
0.96672081
0.99960099
0.9987363
0.9966295
0.99244054
0.9857736
0.9773844
0.96878915
0.96121548
0.95589341
0.95367361
0.95687857
0.96417099
0.96171448
0.96312201
0.99937975
0.99810395
0.99525835
0.99003688
0.98234614
0.97329357
0.96435401
0.95664947
0.95155734
0.94975745
0.9538598
0.9620559
0.95847351
0.95939611
0.99903479
0.99724756
0.99356446
0.98729413
0.97870268
0.9691375
0.95994506
0.95219071
0.94743883
0.94614091
0.95113744
0.9598657
0.95531376
0.95584392
0.99857484
0.99619059
0.99158481
0.98424931
0.97482226
0.9647919
0.95537651
0.94762249
0.94329026
0.94258289
0.94838117
0.95746477
0.95212884
0.952627
1
1
1
1
0.97609656
0.96067034
0.9425343
0.92347706
0.90443282
0.88596313
0.8689442
0.85418442
0.84715642
0.84842064
0.86437392
0.88790499
0.88258857
0.89740416
0.96911329
0.95244494
0.9338547
0.91481313
0.89607495
0.87822249
0.86215839
0.84883863
0.84279153
0.84553626
0.86209695
0.88351638
0.87880944
0.89709342
0.98635996
0.98137967
0.99280838
0.98979664
0.99660786
0.99503411
0.99860551
0.99950387
1
1
1
1
1
1
1
1
1
1
1
1
1
1
1
1
1
1
1
1
1
1
1
1
1
1
1
1
1
1
1
1
1
1
1
1
1
1
0.99999997
1
1
1
1
1
1
1
1
0.99999997
0.99999892
1
1
1
1
1
1
1
1
0.99999997
0.99999902
0.99997105
1
1
1
1
1
1
1
1
0.99999997
0.999999
0.99997144
0.99960385
1
1
1
1
1
1
1
1
1
1
1
1
1
1
1
1
1
1
1
1
1
1
1
1
1
1
1
1
1
1
1
1
1
1
1
1
1
1
1
1
1
1
1
1
1
1
1
1
1
1
1
1
1
1.0634774
1.0063239
1.0011322
1.0000301
1.0000004
1
1
1
1
1
1
1
1
1
1.0554945
1.0049411
1.0008568
1.00002
1.0000003
1
1
1
1
1
1
1
1
1
1.0488865
1.0039451
1.0006663
1.0000139
1.0000002
1
1
1
1
1
1
1
1
1
1.0434326
1.0032082
1.0005295
1.0000101
1.0000001
1
1
1
1
1
1
1
1
1
1.0390346
1.0026635
1.0004307
1.0000075
1.0000001
1
1
1
1
1
1
1
1
1
1.0356131
1.0022593
1.0003588
1.0000058
1.0000001
1
1
1
1
1
1
1
1
1
1.0331247
1.0019732
1.0003078
1.0000047
1.0000001
1
1
1
1
1
1
1
1
1
1
1
1
1
1
1
1
1
1
1
1
1
1
1
1
1
1
1
1
1
1
1
1
1
1
1
1
1
1
1
1
1
1
1
1
1
1
1
1
1
1
1
1
1
1
1
1
1
1
1
1
1
1
1
1
1
1
1
1
1
1
1
1
1
1
1
1
1
1
1
1
1
1
1
1
1
1
1
1
1
1
1
1
1
1
1
1
1
1
1
1
1
1
1
1
1
1
1
1
1
1
1
1
1
1
1
1
1
1
1
1
1
1
1
1
1
1
1
1
1
1
1
1
1
1
1
1
1
1
1
)
;

boundaryField
{
    Side
    {
        type            empty;
    }
    Inlet
    {
        type            inletOutlet;
        inletValue      uniform 1;
        value           nonuniform List<scalar> 
15
(
1
1
1
1
1
1
1
1
1
1
1
1
1
1
1
)
;
    }
    Airfoil
    {
        type            fixedValue;
        value           nonuniform List<scalar> 0();
    }
    Outlet
    {
        type            zeroGradient;
    }
    Flap
    {
        type            fixedValue;
        value           uniform 1;
    }
    procBoundary3to2
    {
        type            processor;
        value           nonuniform List<scalar> 
113
(
1
1
1.0220989
1.0220989
1.0137795
1.0103436
1.0059405
1.0029165
1.0008672
0.99930357
0.99770629
0.99602577
0.99507334
0.99486853
0.99577292
0.9975253
1.0053663
1.0053663
0.9800355
0.97046094
0.99436066
0.9800355
1.008259
1.0144926
1.0130581
1.0088133
1.00557
1.0009488
0.99635397
0.99160889
0.9876759
0.98525534
0.98473285
0.98523955
0.98559819
0.98439831
0.98439831
1
1
1
1
1
1
1
1
1
1
1
1
1
1
0.99999997
0.99999997
0.99999888
0.99999888
0.99996855
0.99996855
0.99956128
0.99956128
0.99436066
1
1
1
1
1
1
1
1
1
1
1
1
1
1
1
1.0312669
1.001803
1.0002746
1.000004
1.0000001
1
1
1
1
1
1
1
1
1
1
1
1
1
1
1
1
1
1
1
1
1
1
1
1
1
1
1
1
1
1
1
1
1
)
;
    }
    procBoundary3to4
    {
        type            processor;
        value           nonuniform List<scalar> 
142
(
1
1
1
1
1
1
1
1
1
1
1
0.99999999
0.99999993
0.99999964
0.99999812
0.99999051
0.99984644
1
1
1
1
1
1
1
1
1
1
1
1
1
1
1
1
1
1
1
1
1
1
1
1
1
1
1
1
1
1
1
1
1
1
1
1
1
1
1
1
1
1
1
1
1
1
0.9621972
0.94461976
0.92574543
0.90675103
0.88824437
0.87083632
0.85551616
0.84306576
0.83832286
0.84458276
0.86162761
0.87963604
0.87464293
0.89516343
0.97594488
0.9860032
0.99271903
0.99789029
0.99789029
0.99922653
0.99984644
1
1
1
1
1
1
1
1
1
1
1
1
1
1
1
1
1
1
1
1
1
1
1
1
1
1
1.0728701
1.0082227
1.001535
1.0000475
1.0000006
1
1
1
1
1
1
1
1
1
1
1
1
1
1
1
1
1
1
1
1
1
1
1
1
1
1
1
)
;
    }
}


// ************************************************************************* //
