/*--------------------------------*- C++ -*----------------------------------*\
| =========                 |                                                 |
| \\      /  F ield         | OpenFOAM: The Open Source CFD Toolbox           |
|  \\    /   O peration     | Version:  2206                                  |
|   \\  /    A nd           | Website:  www.openfoam.com                      |
|    \\/     M anipulation  |                                                 |
\*---------------------------------------------------------------------------*/
FoamFile
{
    version     2.0;
    format      ascii;
    arch        "LSB;label=32;scalar=64";
    class       volVectorField;
    location    "0.01";
    object      U;
}
// * * * * * * * * * * * * * * * * * * * * * * * * * * * * * * * * * * * * * //

dimensions      [0 1 -1 0 0 0 0];

internalField   nonuniform List<vector> 
1396
(
(0.83704443 0.09909068 0)
(0.84291209 0.057456985 -4.2372681e-21)
(0.84876656 0.045477351 0)
(0.85257149 0.043695881 -3.1239581e-21)
(0.85460863 0.043792885 -2.7635459e-21)
(0.85573871 0.043844267 -2.477175e-21)
(0.85635013 0.043780874 0)
(0.85661246 0.043725637 0)
(0.85669452 0.043703652 -1.8874333e-21)
(0.85671307 0.043699829 0)
(0.85671689 0.043699342 -3.5432014e-29)
(0.84580692 0.099011984 0)
(0.84623013 0.057740882 0)
(0.84941897 0.04636446 3.5877479e-21)
(0.8525648 0.044595075 0)
(0.85460736 0.044204615 0)
(0.85577672 0.044010309 0)
(0.85637912 0.04384371 0)
(0.85662456 0.043744509 0)
(0.85669644 0.043707614 0)
(0.85671339 0.043700484 1.746413e-21)
(0.85671698 0.043699254 -1.6266839e-21)
(0.85032832 0.098162053 0)
(0.84839368 0.057782758 0)
(0.8499767 0.046610452 -3.5810192e-21)
(0.85258644 0.044737946 0)
(0.85459392 0.044264386 0)
(0.85579344 0.044008479 0)
(0.85639581 0.043831836 0)
(0.85663193 0.04373657 2.0451557e-21)
(0.85669854 0.04370531 0)
(0.85671377 0.043699547 -1.7445177e-21)
(0.85671704 0.043698628 0)
(0.85342325 0.09745199 0)
(0.85026799 0.057666814 4.2059545e-21)
(0.85059891 0.046909519 0)
(0.85267558 0.045042319 0)
(0.85461061 0.0443962 0)
(0.85582035 0.044039278 2.465645e-21)
(0.8564154 0.043830694 0)
(0.85663963 0.043731797 -4.0851182e-21)
(0.85670049 0.043703505 0)
(0.85671401 0.043698154 0)
(0.85671703 0.043697396 0)
(0.85533655 0.09656495 0)
(0.85168791 0.057562997 -4.1928778e-21)
(0.85124142 0.047065469 -3.5664427e-21)
(0.85283656 0.045221325 0)
(0.85465005 0.044494488 0)
(0.85585006 0.044060714 -4.9237533e-21)
(0.85643421 0.043824825 0)
(0.8566467 0.043725824 2.0399704e-21)
(0.85670208 0.043700689 1.8785441e-21)
(0.85671398 0.043695477 0)
(0.85671682 0.04369493 1.6217556e-21)
(0.85688295 0.095616078 0)
(0.85257858 0.057471389 0)
(0.85182451 0.047187725 -3.8017772e-26)
(0.85306159 0.045358608 0)
(0.85472113 0.044574328 0)
(0.85588495 0.044080094 2.4581268e-21)
(0.85645269 0.043818252 0)
(0.85665317 0.043719204 0)
(0.85670323 0.043696126 -1.8763538e-21)
(0.85671353 0.043690354 -1.7388478e-21)
(0.85671625 0.043689845 -1.6201251e-21)
(0.85774028 0.09464147 -1.0006152e-20)
(0.85308708 0.057404151 8.3376015e-21)
(0.8523601 0.047278109 3.5513952e-21)
(0.85331753 0.045448957 6.1793446e-21)
(0.8548157 0.044627443 5.4710837e-21)
(0.85592507 0.044092065 -4.9091502e-21)
(0.856471 0.043810019 0)
(0.8566589 0.043710948 0)
(0.85670375 0.043688232 0)
(0.8567123 0.043681121 1.736977e-21)
(0.85671512 0.043679541 0)
(0.85806391 0.093731577 9.9715202e-21)
(0.8534756 0.057346683 -8.3155157e-21)
(0.8527906 0.047368359 0)
(0.8535687 0.045509104 -1.2336711e-20)
(0.85492453 0.044658655 -5.461906e-21)
(0.85597039 0.044095486 4.9015946e-21)
(0.85648957 0.043799428 -4.4446566e-21)
(0.85666375 0.043699453 4.0645113e-21)
(0.85670333 0.043674601 0)
(0.85670979 0.043664194 0)
(0.85671275 0.043659241 0)
(0.85802085 0.092887362 0)
(0.853779 0.057282416 0)
(0.85312377 0.047456317 0)
(0.8537933 0.045551428 6.1569906e-21)
(0.85503892 0.044671429 0)
(0.85602009 0.044089245 -4.8945749e-21)
(0.85650843 0.043785005 4.4385058e-21)
(0.85666748 0.043682108 -4.0594066e-21)
(0.85670168 0.043651656 0)
(0.85670514 0.043633388 0)
(0.85670808 0.04362029 0)
(0.85774496 0.092073089 0)
(0.85403553 0.057209225 0)
(0.85338566 0.047542589 7.0592949e-21)
(0.85399065 0.045585658 -6.1461603e-21)
(0.8551543 0.0446704 0)
(0.85607268 0.044073304 4.8870761e-21)
(0.85652709 0.043764543 0)
(0.85666965 0.043654554 0)
(0.85669784 0.043613653 0)
(0.85669732 0.043578656 0)
(0.85669926 0.043547386 0)
(0.85735625 0.09126991 9.9153276e-21)
(0.85429718 0.057148061 0)
(0.85361467 0.04763839 -7.0437552e-21)
(0.85416915 0.045612739 6.1340865e-21)
(0.85526776 0.044659586 0)
(0.85612607 0.044047783 0)
(0.85654436 0.043733889 0)
(0.85666953 0.043610371 0)
(0.85668918 0.043549755 0)
(0.85668344 0.043482495 3.4585904e-21)
(0.85668266 0.043413017 0)
(0.85697195 0.090459285 5.3332783e-24)
(0.85460344 0.05708532 -8.2473728e-21)
(0.85383706 0.047731576 7.0287918e-21)
(0.8543307 0.045616901 6.1232788e-21)
(0.85537224 0.044632676 5.4268827e-21)
(0.85617682 0.044008788 0)
(0.85655797 0.043686574 0)
(0.85666601 0.043541723 -4.0438084e-21)
(0.85667594 0.043443275 0)
(0.85665921 0.043316868 -3.4552032e-21)
(0.85665211 0.043171954 0)
(0.85670023 0.089577283 -1.9775852e-20)
(0.85492392 0.05695329 8.2268179e-21)
(0.85405832 0.047781653 -7.012404e-21)
(0.85447041 0.045585905 -6.1110118e-21)
(0.85545858 0.044578688 5.2680117e-25)
(0.85622023 0.04395342 4.8656354e-21)
(0.85656518 0.04362428 0)
(0.85665844 0.043443881 4.5078298e-25)
(0.85665708 0.043279739 -3.7214432e-21)
(0.85662241 0.043053822 3.4502793e-21)
(0.85660276 0.042775944 0)
(0.85522573 0.056734708 8.2095279e-21)
(0.85426979 0.047795 0)
(0.8545927 0.045543176 0)
(0.85552887 0.044515513 -5.4090643e-21)
(0.85625443 0.043895414 -4.8585482e-21)
(0.85656637 0.043554929 0)
(0.85664036 0.043303604 8.0670718e-21)
(0.85662932 0.043037491 3.7177785e-21)
(0.85656863 0.042658192 -3.4475232e-21)
(0.85652746 0.042170419 -3.2113006e-21)
(0.85671765 0.04369907 1.0383711e-20)
(0.85671758 0.043698588 -2.0761863e-20)
(0.85671739 0.04369758 1.2341128e-26)
(0.85671698 0.043695337 1.0375929e-20)
(0.85671612 0.043690446 0)
(0.85671437 0.04368012 1.0370793e-20)
(0.85671081 0.043658897 -2.6131057e-25)
(0.85670391 0.043616779 -2.0731251e-20)
(0.85669091 0.043535442 1.0363329e-20)
(0.85666714 0.043382467 0)
(0.85662378 0.043099523 0)
(0.85654561 0.042590649 1.0348862e-20)
(0.8564206 0.041764008 -1.0351466e-20)
(0.85623778 0.04052423 -1.0330312e-20)
(0.8567177 0.043698808 0)
(0.85671748 0.043697762 0)
(0.85671704 0.043695549 0)
(0.85671603 0.043690484 0)
(0.85671381 0.0436792 0)
(0.8567091 0.043654816 0)
(0.85669937 0.043603673 -9.9848713e-21)
(0.85667989 0.043499672 1.9964962e-20)
(0.85664233 0.043295489 -9.9806584e-21)
(0.85657258 0.042909448 0)
(0.85644599 0.042202297 0)
(0.85622379 0.04096506 0)
(0.85587418 0.039014673 0)
(0.85537098 0.036167425 0)
(0.85671762 0.043698426 -9.6430779e-21)
(0.85671718 0.04369645 9.6407068e-21)
(0.85671624 0.043692107 0)
(0.85671406 0.043681873 0)
(0.85670913 0.043658505 1.9267875e-20)
(0.85669835 0.043606951 -1.926407e-20)
(0.85667562 0.043497214 9.6285148e-21)
(0.85662956 0.043272609 -9.6275218e-21)
(0.85654055 0.04283352 9.6198917e-21)
(0.85637673 0.042016027 -9.6222997e-21)
(0.85608677 0.040560779 -9.602095e-21)
(0.85560042 0.038122061 -9.5580508e-21)
(0.85487003 0.03443713 2.8778273e-20)
(0.85386445 0.029257117 -9.5974305e-21)
(0.85671749 0.043697948 -9.4829739e-27)
(0.85671675 0.043694735 -2.7926381e-20)
(0.85671507 0.043687416 1.8613603e-20)
(0.85671103 0.04366971 0)
(0.85670166 0.043628396 0)
(0.85668078 0.043535787 -9.2996126e-21)
(0.85663617 0.043336867 2.3065663e-24)
(0.85654537 0.042929385 9.2962964e-21)
(0.85637067 0.0421393 9.2846473e-21)
(0.85605386 0.040694759 -1.6495935e-23)
(0.85550915 0.03819917 -2.8122672e-23)
(0.85463276 0.034177939 -1.8514558e-20)
(0.85336606 0.028320133 6.8272156e-23)
(0.85168416 0.020380512 9.255232e-21)
(0.85671738 0.043697544 -9.0010815e-21)
(0.85671632 0.043693183 -1.799798e-20)
(0.85671382 0.043682878 1.1969202e-25)
(0.85670764 0.043657263 8.9952383e-21)
(0.85669292 0.043596147 8.9926264e-21)
(0.85665945 0.043456824 -1.592148e-24)
(0.85658702 0.043154466 -3.4282805e-24)
(0.85643879 0.042533382 -8.9870269e-21)
(0.85615427 0.04133559 0)
(0.85564402 0.039176252 8.956516e-21)
(0.85478597 0.035532384 -8.9751487e-21)
(0.8534458 0.029830464 -8.9041137e-21)
(0.85155683 0.021741232 1.7816144e-20)
(0.84911028 0.01108894 -8.9337967e-21)
(0.85671731 0.043697366 8.7111006e-21)
(0.85671604 0.043692353 5.2134964e-26)
(0.85671293 0.043680038 8.7074016e-21)
(0.85670496 0.043648515 -8.7052683e-21)
(0.85668545 0.043571421 8.7038302e-21)
(0.85664011 0.043392165 -8.6999654e-21)
(0.85654037 0.042997669 1.7395572e-20)
(0.85633424 0.042181305 -8.6976611e-21)
(0.85593732 0.040606119 0)
(0.85522831 0.037785178 8.6597943e-21)
(0.85405044 0.033090164 -8.6839945e-21)
(0.85224225 0.025874315 0)
(0.84973002 0.015805255 0)
(0.84652625 0.0028136703 0)
(0.85671731 0.043697462 0)
(0.85671602 0.043692487 0)
(0.85671268 0.043679754 0)
(0.85670382 0.043646107 0)
(0.85668152 0.043561499 0)
(0.85662831 0.04336008 0)
(0.85650881 0.042908389 0)
(0.8562579 0.041960917 0)
(0.85576966 0.040117951 0)
(0.85489332 0.036809501 0)
(0.85343976 0.031321251 0)
(0.85122145 0.02294506 0)
(0.84815491 0.011341758 0)
(0.8442706 -0.0034570386 0)
(0.85671738 0.043697767 -8.183772e-21)
(0.85671622 0.04369344 8.1820979e-21)
(0.85671309 0.043681885 -8.1804103e-21)
(0.85670448 0.04365027 3.5014758e-25)
(0.85668207 0.043568271 1.6353861e-20)
(0.85662702 0.043367579 -1.6349264e-20)
(0.85650011 0.042906498 1.6342838e-20)
(0.85622757 0.041919409 -8.1716606e-21)
(0.8556873 0.039967739 0)
(0.85470373 0.036422084 -8.1269401e-21)
(0.85305765 0.030497722 1.6251468e-20)
(0.85053337 0.02142394 -8.1439365e-21)
(0.84703029 0.0088329093 0)
(0.84258419 -0.0071850287 -7.9251757e-21)
(0.85671748 0.043698161 -7.9433593e-21)
(0.85671656 0.043694831 7.9417834e-21)
(0.85671397 0.043685546 -7.9402129e-21)
(0.85670656 0.043659169 2.8886296e-25)
(0.85668657 0.043588391 1.5873922e-20)
(0.85663579 0.043409595 -7.9357867e-21)
(0.85651499 0.042986542 7.9296083e-21)
(0.8562479 0.042055869 -7.9319821e-21)
(0.85570396 0.040169765 0)
(0.85468993 0.036668752 -7.8887331e-21)
(0.85295936 0.030714666 1.5773965e-20)
(0.85026419 0.021467164 -7.9048125e-21)
(0.84647476 0.0084955102 0)
(0.84161162 -0.0081170663 0)
(0.85671758 0.04369854 0)
(0.85671693 0.043696266 0)
(0.85671504 0.043689671 0)
(0.85670939 0.043670161 0)
(0.85669356 0.043615866 0)
(0.85665186 0.043473834 0)
(0.85654904 0.043126108 0)
(0.85631346 0.042334994 0)
(0.85581666 0.040678153 0)
(0.85485909 0.037505129 0)
(0.85317437 0.03195234 0)
(0.85047979 0.023108683 0)
(0.84660306 0.01044169 0)
(0.84152396 -0.0060544879 0)
(0.85671766 0.043698839 0)
(0.85671726 0.043697449 0)
(0.85671603 0.043693305 0)
(0.85671222 0.043680499 7.4983966e-21)
(0.85670108 0.043643449 -1.4994031e-20)
(0.85667058 0.043542815 1.0527533e-24)
(0.85659235 0.043286925 7.4944037e-21)
(0.85640567 0.042681569 0)
(0.85599509 0.041361747 0)
(0.85516937 0.038729737 7.4608276e-21)
(0.85365545 0.033938235 -1.4915353e-20)
(0.85113976 0.0260216 7.6847121e-23)
(0.84739698 0.014319144 1.151424e-22)
(0.84234112 -0.0013368291 7.4283458e-21)
(0.85671772 0.043699042 7.3000077e-21)
(0.85671749 0.043698282 -7.2986699e-21)
(0.85671678 0.043695952 2.5409538e-26)
(0.85671451 0.043688507 1.459232e-20)
(0.85670755 0.043666038 -7.2949539e-21)
(0.85668773 0.043602579 -7.2930277e-21)
(0.85663476 0.043434673 7.2923564e-21)
(0.85650278 0.043020356 0)
(0.85619868 0.042075221 0)
(0.85555622 0.040097945 -7.2667225e-21)
(0.85431731 0.036316057 1.4526409e-20)
(0.852155 0.029757387 -7.2733577e-21)
(0.84879338 0.019636374 0)
(0.84406709 0.0055751432 -7.0994368e-21)
(0.85671775 0.043699163 7.1081039e-21)
(0.85671764 0.043698786 0)
(0.85671727 0.043697597 7.1056591e-21)
(0.85671605 0.043693713 -4.1612473e-26)
(0.85671218 0.043681482 -7.1033204e-21)
(0.85670063 0.043645423 -7.1017589e-21)
(0.85666838 0.043545879 7.1009056e-21)
(0.85658415 0.043288944 0)
(0.85637968 0.042673274 0)
(0.85592226 0.041314128 -7.0825365e-21)
(0.8549839 0.038559714 1.4158152e-20)
(0.85323704 0.033491791 -7.0860817e-21)
(0.8503468 0.025245013 0)
(0.84604188 0.013266841 0)
(0.85671777 0.043699227 6.9260306e-21)
(0.85671772 0.043699056 0)
(0.85671752 0.04369848 -6.9237178e-21)
(0.85671686 0.043696539 1.3845199e-20)
(0.85671471 0.043690336 -6.9214945e-21)
(0.8567081 0.043671688 0)
(0.85668913 0.043619164 6.9187014e-21)
(0.85663813 0.043480813 -6.9180327e-21)
(0.85651032 0.043141255 0)
(0.85621255 0.042369382 -6.9074764e-21)
(0.85556854 0.040751138 1.3809258e-20)
(0.85429499 0.037642721 -6.9079414e-21)
(0.85212669 0.032267509 0)
(0.84925279 0.023783008 -6.8082989e-21)
(0.85671779 0.043699269 0)
(0.85671779 0.043699244 0)
(0.85671778 0.04369915 0)
(0.85671773 0.04369881 -2.219415e-21)
(0.85671754 0.043697643 3.9063242e-27)
(0.85671684 0.043693861 2.2265552e-21)
(0.85671446 0.043682288 0)
(0.85670696 0.043648819 0)
(0.85668508 0.043557085 0)
(0.85662576 0.043317981 1.1199876e-21)
(0.85647592 0.042725528 -1.1220249e-21)
(0.85612264 0.041358551 -5.6063307e-22)
(0.85537281 0.03844568 2.8212193e-22)
(0.85392064 0.034417047 2.8049793e-22)
(0.85671779 0.043699275 -2.0200705e-21)
(0.85671779 0.043699272 7.754519e-30)
(0.85671779 0.043699263 2.0259685e-21)
(0.85671777 0.043699224 0)
(0.85671772 0.043699067 2.0319174e-21)
(0.85671752 0.043698466 -2.0349054e-21)
(0.85671685 0.043696298 0)
(0.85671468 0.043688855 -1.0204391e-21)
(0.856708 0.043664537 2.0438666e-21)
(0.85668829 0.043589161 -1.0234478e-21)
(0.85663232 0.043370729 5.1229251e-22)
(0.85647745 0.042791708 -4.3238911e-25)
(0.85607442 0.041314196 -5.1337614e-22)
(0.8550849 0.039321121 0)
(0.85671779 0.043699275 3.7220931e-21)
(0.85671779 0.043699275 -1.8635397e-21)
(0.85671779 0.043699274 0)
(0.85671779 0.04369927 -1.8685723e-21)
(0.85671778 0.043699253 3.7421974e-21)
(0.85671774 0.04369918 -1.8736319e-21)
(0.8567176 0.043698882 0)
(0.85671708 0.043697713 0)
(0.85671526 0.043693265 0)
(0.85670901 0.043677022 0)
(0.85668857 0.043618709 0)
(0.85662411 0.04343391 4.720822e-22)
(0.85643616 0.042851741 -7.0844699e-22)
(0.8558967 0.041994416 2.3597773e-22)
(0.85671779 0.043699275 1.7252332e-21)
(0.85671779 0.043699275 -1.7273766e-21)
(0.85671779 0.043699275 0)
(0.85671779 0.043699275 1.7316997e-21)
(0.85671779 0.043699273 -1.7338693e-21)
(0.85671778 0.043699264 1.7360443e-21)
(0.85671776 0.043699222 -1.7382247e-21)
(0.85671768 0.043699037 8.7020494e-22)
(0.85671734 0.043698238 -8.7130079e-22)
(0.85671597 0.043694926 -8.7239315e-22)
(0.85671039 0.04368181 4.3675954e-22)
(0.85668943 0.043634492 4.3729704e-22)
(0.85662141 0.043450993 -2.1867917e-22)
(0.85639044 0.043127024 2.1855987e-22)
(0.85671779 0.043699275 0)
(0.85671779 0.043699275 1.6097553e-21)
(0.85671779 0.043699275 -1.61163e-21)
(0.85671779 0.043699275 0)
(0.85671779 0.043699275 1.6153924e-21)
(0.85671779 0.043699274 -3.7268426e-30)
(0.85671779 0.043699268 -1.6191723e-21)
(0.85671777 0.04369924 -8.1053435e-22)
(0.85671772 0.043699103 1.6229694e-21)
(0.85671745 0.043698466 -1.6248738e-21)
(0.85671629 0.043695632 8.1339194e-22)
(0.85671138 0.043683942 4.0716439e-22)
(0.85669143 0.043633428 -4.0734839e-22)
(0.8566108 0.043528311 0)
(0.85671779 0.043699275 3.0109966e-21)
(0.85671779 0.043699275 -1.0608418e-34)
(0.85671779 0.043699275 -1.5087745e-21)
(0.85671779 0.043699275 -1.5104212e-21)
(0.85671779 0.043699275 3.024143e-21)
(0.85671779 0.043699275 -1.5137253e-21)
(0.85671779 0.043699274 0)
(0.85671779 0.04369927 0)
(0.85671778 0.043699248 7.5935419e-22)
(0.85671773 0.043699135 -7.6018836e-22)
(0.85671749 0.04369857 0)
(0.85671636 0.043695945 3.8092876e-22)
(0.85671126 0.043683222 -3.8108473e-22)
(0.8566879 0.043652394 0)
(0.85564492 0.036631178 4.5082168e-21)
(0.85442224 0.027389298 4.723177e-21)
(0.85234857 0.010869041 -9.2812805e-21)
(0.84955205 -0.013315857 4.5967233e-21)
(0.8464432 -0.042999586 -6.9777019e-23)
(0.84351625 -0.074888161 0)
(0.8412536 -0.10584628 0)
(0.84032863 -0.13157913 0)
(0.84045139 -0.15043232 2.107152e-21)
(0.84638709 -0.1408354 -4.8331162e-23)
(0.84860894 -0.13928646 -4.3026438e-21)
(0.8556409 -0.11554996 5.5969599e-23)
(0.85498502 -0.13691621 2.1938536e-21)
(0.84332742 -0.12353218 -2.1768481e-21)
(0.85409454 0.028807547 7.7648436e-23)
(0.85169573 0.013710384 0)
(0.84815682 -0.0094960359 0)
(0.84390239 -0.039111544 4.7771469e-21)
(0.83950012 -0.072046126 -4.7574952e-21)
(0.8354747 -0.1054372 0)
(0.83237427 -0.13630425 -4.5488929e-21)
(0.83134373 -0.15880204 1.0012215e-22)
(0.83096535 -0.17518568 4.653591e-21)
(0.83887123 -0.15550817 2.3814959e-21)
(0.84124629 -0.15039181 -1.4266217e-23)
(0.84727449 -0.13325929 -6.7848234e-23)
(0.84407645 -0.16425437 -4.5275122e-21)
(0.8319929 -0.14751785 2.320203e-21)
(0.85168411 0.017758264 3.9855572e-23)
(0.84792532 -0.003159966 0)
(0.84295238 -0.031635196 0)
(0.83740838 -0.064672764 0)
(0.83186949 -0.099424829 -4.7837504e-21)
(0.82684779 -0.13347838 4.9262705e-21)
(0.82293488 -0.16383921 0)
(0.82213007 -0.18195264 -4.7118015e-21)
(0.82148829 -0.19549346 4.7542229e-21)
(0.83105397 -0.16677855 0)
(0.8343645 -0.15860716 0)
(0.83834653 -0.14957482 3.6687585e-23)
(0.83251024 -0.18876293 -4.5836702e-21)
(0.81974084 -0.16978828 4.847924e-21)
(0.84844693 0.0047715577 5.1545711e-21)
(0.84326602 -0.021010034 -5.2928329e-21)
(0.83693481 -0.053111843 0)
(0.83019205 -0.088246575 0)
(0.82356597 -0.12410124 0)
(0.81761882 -0.15828269 0)
(0.81292656 -0.18797726 0)
(0.8125514 -0.20146759 0)
(0.8122386 -0.21126892 -3.8121099e-23)
(0.82247907 -0.1776976 -4.9173869e-21)
(0.82691174 -0.16752251 9.6707479e-21)
(0.82920622 -0.16480232 -6.9196557e-23)
(0.82071365 -0.20959209 -9.6459537e-21)
(0.80724982 -0.18921218 9.7505534e-21)
(0.84481035 -0.0079610621 0)
(0.83830675 -0.037253258 5.1816085e-21)
(0.83075775 -0.071666908 -1.0410967e-20)
(0.82290911 -0.10813683 2.388259e-22)
(0.81524685 -0.14472946 1.016353e-20)
(0.80843986 -0.17881933 -1.0020136e-20)
(0.80293597 -0.2082258 5.0132197e-21)
(0.80283226 -0.21821457 -4.8986251e-21)
(0.80378961 -0.2220159 -5.6062078e-23)
(0.81410594 -0.18651902 4.8770022e-21)
(0.81864864 -0.17704773 4.9607584e-21)
(0.8199517 -0.17803123 -3.094569e-23)
(0.80940095 -0.22503058 -9.7683126e-21)
(0.79570354 -0.20414037 5.037889e-21)
(0.8412546 -0.018834828 5.3073308e-21)
(0.83360221 -0.050498431 -1.0659846e-20)
(0.82498692 -0.086424498 5.3580733e-21)
(0.81612765 -0.12386426 0)
(0.80748996 -0.16109498 -2.0145079e-23)
(0.79987519 -0.19518935 0)
(0.79359734 -0.22467811 1.9649495e-23)
(0.79346588 -0.23287541 -4.9764058e-21)
(0.79605221 -0.22992643 9.9004308e-21)
(0.80677217 -0.19382646 -4.9084408e-21)
(0.81063319 -0.18696978 -1.9712921e-23)
(0.81133917 -0.18999456 -1.9729986e-23)
(0.79932534 -0.23750658 0)
(0.7858792 -0.21660752 4.9780253e-21)
(0.83815395 -0.026945537 -1.054912e-23)
(0.82952163 -0.060199965 0)
(0.81995764 -0.097228654 1.0218086e-23)
(0.81015631 -0.13552982 -1.0053397e-23)
(0.80057714 -0.17350723 9.8949338e-24)
(0.79212286 -0.20805869 0)
(0.78503731 -0.23827725 9.6188588e-24)
(0.78483398 -0.24538526 -4.9583055e-21)
(0.78868392 -0.2376623 4.9116076e-21)
(0.80009351 -0.20174931 0)
(0.80347534 -0.19642946 0)
(0.80370792 -0.20076644 9.7054815e-24)
(0.79052324 -0.2484647 -4.9036714e-21)
(0.77745887 -0.22786823 5.0756191e-21)
(0.83574781 -0.031894828 5.4908509e-21)
(0.82625579 -0.06624665 1.03408e-23)
(0.81579726 -0.10420735 -7.5674655e-26)
(0.80505785 -0.14342905 1.0094733e-23)
(0.79449588 -0.18241769 -1.0735106e-25)
(0.78504599 -0.21813548 4.9029973e-21)
(0.77706686 -0.24961826 -9.8817258e-21)
(0.77654605 -0.25687934 9.8646155e-21)
(0.78119702 -0.24706827 1.1615615e-22)
(0.79349715 -0.21110591 -4.8721505e-21)
(0.79703829 -0.20549151 9.6834833e-24)
(0.79683773 -0.21063475 -1.4187197e-25)
(0.78244911 -0.25898281 9.6970935e-24)
(0.76973323 -0.2391283 -4.9951348e-21)
(0.83416896 -0.033503571 -2.5958868e-24)
(0.82387784 -0.068605559 -1.0233991e-23)
(0.81250403 -0.10743436 -5.0278047e-21)
(0.80074331 -0.14771343 5.2021662e-21)
(0.78905443 -0.18803788 -9.7814689e-24)
(0.77834288 -0.22562125 -9.6481407e-24)
(0.7691063 -0.25927881 -9.5311458e-24)
(0.7677852 -0.26840704 -4.8320652e-21)
(0.7726469 -0.25879854 4.7857146e-21)
(0.78595417 -0.22248138 0)
(0.79054069 -0.21419585 -9.6947259e-24)
(0.78996295 -0.21945148 -9.671208e-24)
(0.77418881 -0.26910778 0)
(0.76163606 -0.25055085 4.9363836e-21)
(0.83364294 -0.03150485 2.5368389e-24)
(0.82265043 -0.066960098 -6.2715737e-25)
(0.81037011 -0.10653585 1.8435097e-24)
(0.79753253 -0.14793516 -4.8243206e-21)
(0.78459727 -0.18982214 5.0151107e-21)
(0.77240279 -0.22974741 0)
(0.76147705 -0.26654914 -4.6484134e-21)
(0.75863436 -0.27950231 4.7611498e-21)
(0.76292039 -0.27239756 4.7839471e-21)
(0.77718534 -0.23594375 1.6189289e-22)
(0.78391833 -0.22224576 -4.7427855e-21)
(0.78343007 -0.22641272 0)
(0.76621345 -0.2773065 0)
(0.75363893 -0.26111646 -5.843529e-25)
(0.83423858 -0.026177068 -4.9465285e-21)
(0.82266916 -0.061517751 5.1001644e-21)
(0.80949324 -0.10166172 -4.7662198e-21)
(0.79551447 -0.14417864 4.9546595e-21)
(0.78120469 -0.18775284 4.6076034e-21)
(0.76733528 -0.23024177 -9.3432674e-21)
(0.75430108 -0.27093358 4.7109947e-21)
(0.74906912 -0.28967799 5.5736521e-25)
(0.75172609 -0.28776481 4.6184248e-21)
(0.76661676 -0.25216946 1.658143e-22)
(0.77640814 -0.2312523 -9.2516854e-21)
(0.7769365 -0.23245716 4.6923277e-21)
(0.75847721 -0.28379203 0)
(0.74535064 -0.27084858 5.8069374e-25)
(0.83610093 -0.017808412 4.9730522e-21)
(0.82425498 -0.05232673 0)
(0.81034417 -0.092679153 0)
(0.79528356 -0.13616928 9.1073856e-24)
(0.77957908 -0.18140419 4.4947811e-24)
(0.76394403 -0.22647638 0)
(0.74855591 -0.27134361 4.3266157e-24)
(0.74005598 -0.29741122 4.2385219e-24)
(0.73971146 -0.30363637 0)
(0.75427247 -0.27090122 -4.5097911e-21)
(0.76748817 -0.24223704 4.3935678e-21)
(0.77050989 -0.23743598 0)
(0.75195411 -0.28646366 4.3668076e-21)
(0.73746047 -0.27791052 -4.673326e-21)
(0.83827239 -0.0078934385 -4.608755e-21)
(0.82614455 -0.040741539 4.7387845e-21)
(0.8113255 -0.080695956 0)
(0.79496031 -0.12471958 4.5225012e-24)
(0.77767108 -0.17124044 -4.2696029e-21)
(0.76013721 -0.21856916 4.4766469e-21)
(0.74242132 -0.2670861 4.1144119e-21)
(0.7301856 -0.3010252 -4.3020634e-21)
(0.72544264 -0.31799684 0)
(0.7392201 -0.29084917 -4.2896968e-21)
(0.755224 -0.25663077 4.1903337e-21)
(0.76323471 -0.24284653 0)
(0.74700966 -0.28522576 4.1861618e-21)
(0.73030122 -0.2820838 -4.5119148e-21)
(0.84525948 0.0070033255 4.569758e-21)
(0.83539391 -0.022391405 0)
(0.82215209 -0.060911834 0)
(0.80640086 -0.10544596 -8.2872438e-24)
(0.78883639 -0.153767 0)
(0.77004122 -0.20419221 3.9935635e-21)
(0.75016344 -0.25661883 -4.2039074e-21)
(0.73282707 -0.29994926 -7.748893e-24)
(0.72084566 -0.33163664 0)
(0.72884718 -0.31359882 -7.8755802e-24)
(0.74370492 -0.27809941 -4.1590955e-21)
(0.75597863 -0.25242943 4.0206633e-21)
(0.74467817 -0.27822584 -3.9859705e-21)
(0.72531507 -0.28147028 1.5224189e-22)
(0.85671779 0.043699275 1.5418276e-22)
(0.85671779 0.043699275 -4.9169035e-21)
(0.85671779 0.043699275 -4.7542448e-21)
(0.85671779 0.043699275 4.8983464e-21)
(0.85671779 0.043699275 -3.0625469e-22)
(0.85671779 0.043699275 -3.0567767e-22)
(0.85671779 0.043699275 -1.5255139e-22)
(0.85671779 0.043699275 0)
(0.85671779 0.043699275 -9.4615124e-21)
(0.85671779 0.043699275 1.523185e-22)
(0.85671779 0.043699275 1.0034178e-20)
(0.85671779 0.043699275 3.2012903e-33)
(0.85671779 0.043699275 -4.5439571e-21)
(0.85671779 0.043699275 4.5354881e-21)
(0.85671779 0.043699275 -1.0037695e-20)
(0.85671779 0.043699275 4.7058521e-21)
(0.85671779 0.043699275 -3.0303626e-22)
(0.85671779 0.043699275 4.6883047e-21)
(0.85671779 0.043699275 -4.9814885e-21)
(0.85671779 0.043699275 -4.8215613e-21)
(0.85671779 0.043699275 4.5118333e-21)
(0.85671779 0.043699275 -4.8037156e-21)
(0.85671779 0.043699275 1.5157105e-22)
(0.85671779 0.043699275 9.833744e-21)
(0.85671779 0.043699275 -4.6812088e-21)
(0.85671779 0.043699275 3.0145227e-22)
(0.85671779 0.043699275 0)
(0.85671779 0.043699275 -4.6552101e-21)
(0.85671779 0.043699275 2.9978116e-22)
(0.85671779 0.043699275 4.9372658e-21)
(0.85671779 0.043699275 4.7788374e-21)
(0.85671779 0.043699275 -4.91912e-21)
(0.85671779 0.043699275 -4.9849569e-21)
(0.85671779 0.043699275 4.8249125e-21)
(0.85671779 0.043699275 4.6654621e-21)
(0.85671779 0.043699275 -5.107482e-21)
(0.85671779 0.043699275 -1.4994238e-22)
(0.85671779 0.043699275 0)
(0.85671779 0.043699275 4.4817027e-21)
(0.85671779 0.043699275 -9.3942748e-21)
(0.85671779 0.043699275 9.2281947e-21)
(0.85671779 0.043699275 -4.7542159e-21)
(0.85671779 0.043699275 0)
(0.85671779 0.043699275 -1.48027e-22)
(0.85671779 0.043699275 1.5055099e-22)
(0.85671779 0.043699275 -1.5027209e-22)
(0.85671779 0.043699275 -4.4998265e-21)
(0.85671779 0.043699275 4.9406732e-21)
(0.85671779 0.043699275 2.9888309e-22)
(0.85671779 0.043699275 0)
(0.85671779 0.043699275 1.4889293e-22)
(0.85671779 0.043699275 -1.4862014e-22)
(0.85671779 0.043699275 -4.7471465e-21)
(0.85671779 0.043699275 4.8865581e-21)
(0.85671779 0.043699275 1.478077e-22)
(0.85671779 0.043699275 1.4753886e-22)
(0.85671779 0.043699275 -4.712672e-21)
(0.85671777 0.043699275 4.8014739e-21)
(0.85671779 0.043699259 1.4976905e-22)
(0.85671778 0.043699247 -1.4949303e-22)
(0.85671778 0.043699232 5.0734128e-21)
(0.85671778 0.043699221 -9.0855872e-21)
(0.85671778 0.043699217 -5.9468319e-22)
(0.85671778 0.043699221 4.74877e-21)
(0.85671778 0.043699231 9.4801965e-21)
(0.85671778 0.043699243 -4.5835999e-21)
(0.85671778 0.043699254 -4.8704383e-21)
(0.85671779 0.043699263 -1.47321e-22)
(0.85671779 0.043699269 4.4116176e-21)
(0.85671779 0.043699272 -2.935756e-22)
(0.85671779 0.043699274 -4.6887247e-21)
(0.85671779 0.043699275 1.7201034e-22)
(0.85671779 0.043699275 0)
(0.85671779 0.043699275 -2.5672886e-21)
(0.85671779 0.043699275 2.7316304e-21)
(0.85671779 0.043699275 -2.9041444e-34)
(0.85671779 0.043699275 -5.5670634e-21)
(0.85671779 0.043699275 2.8658255e-21)
(0.85671779 0.043699275 3.037015e-21)
(0.85671779 0.043699275 -2.8509473e-21)
(0.85671779 0.043699275 0)
(0.85671779 0.043699275 -3.0221806e-21)
(0.85671779 0.043699275 -3.0138872e-21)
(0.85671779 0.043699275 2.8177868e-21)
(0.85671779 0.043699275 -3.1847761e-21)
(0.85671779 0.043699275 2.989278e-21)
(0.85671779 0.043699275 -3.7264551e-22)
(0.85671779 0.043699275 0)
(0.85671779 0.043699275 1.8531673e-22)
(0.85671779 0.043699275 2.8954762e-35)
(0.85671779 0.043699275 0)
(0.85671779 0.043699275 3.9497434e-22)
(0.85671779 0.043699275 0)
(0.85671779 0.043699275 1.9635733e-22)
(0.85671779 0.043699275 1.9579724e-22)
(0.85671779 0.043699275 1.9524034e-22)
(0.85671779 0.043699275 1.9468659e-22)
(0.85671779 0.043699275 1.9413598e-22)
(0.85671779 0.043699275 -3.2910045e-21)
(0.85671779 0.043699275 2.0943384e-22)
(0.85671779 0.043699275 3.3407489e-21)
(0.85671779 0.043699275 -2.0816362e-22)
(0.85671779 0.043699275 -3.3205482e-21)
(0.85671779 0.043699275 -2.069087e-22)
(0.85671779 0.043699275 -3.3005904e-21)
(0.85671779 0.043699275 3.2907012e-21)
(0.85671779 0.043699275 -3.6909798e-21)
(0.85671779 0.043699275 3.0666557e-21)
(0.85671779 0.043699275 0)
(0.85671779 0.043699275 -2.0323311e-22)
(0.85671779 0.043699275 0)
(0.85671779 0.043699275 -3.3222074e-21)
(0.85671779 0.043699275 3.7530587e-21)
(0.85671779 0.043699275 -3.3009062e-22)
(0.85671779 0.043699275 0)
(0.85671779 0.043699275 -3.4985353e-21)
(0.85671779 0.043699275 3.4874258e-21)
(0.85671779 0.043699275 0)
(0.85671779 0.043699275 -3.4654184e-21)
(0.85671779 0.043699275 6.9090369e-21)
(0.85671779 0.043699275 -3.2284564e-21)
(0.85671779 0.043699275 0)
(0.85671779 0.043699275 0)
(0.85671779 0.043699275 -3.4115957e-21)
(0.85671779 0.043699275 3.4010316e-21)
(0.85671779 0.043699275 7.4687834e-21)
(0.85671779 0.043699275 3.6054325e-21)
(0.85671779 0.043699275 -3.5932562e-21)
(0.85671779 0.043699275 -3.8122046e-21)
(0.85671779 0.043699275 7.3685649e-21)
(0.85671779 0.043699275 1.8137237e-33)
(0.85671779 0.043699275 -3.6597286e-21)
(0.85671779 0.043699275 0)
(0.85671779 0.043699275 -1.1360939e-22)
(0.85671779 0.043699275 -3.6235062e-21)
(0.85671779 0.043699275 3.4987285e-21)
(0.85671779 0.043699275 0)
(0.85671779 0.043699275 0)
(0.85671779 0.043699275 -3.5763106e-21)
(0.85671779 0.043699275 0)
(0.85671779 0.043699275 1.228955e-22)
(0.85671779 0.043699275 3.9186238e-21)
(0.85671779 0.043699275 -3.7826709e-21)
(0.85671779 0.043699275 -3.8908596e-21)
(0.85671779 0.043699275 3.8771243e-21)
(0.85671779 0.043699275 0)
(0.85671779 0.043699275 -3.8499423e-21)
(0.85671779 0.043699275 3.9563847e-21)
(0.85671779 0.043699275 0)
(0.85671779 0.043699275 1.1905867e-22)
(0.85671779 0.043699274 0)
(0.85671779 0.043699274 -1.1823835e-22)
(0.85671779 0.043699273 0)
(0.85671779 0.043699275 8.3696047e-21)
(0.85671779 0.043699275 4.168917e-21)
(0.85671779 0.043699275 1.2978601e-22)
(0.85671779 0.043699275 -8.4043095e-21)
(0.85671779 0.043699275 8.2439564e-21)
(0.85671779 0.043699275 -8.341462e-21)
(0.85671779 0.043699275 8.457292e-31)
(0.85671779 0.043699275 4.0760846e-21)
(0.85671779 0.043699275 0)
(0.85671779 0.043699273 -1.2643913e-22)
(0.85671779 0.043699267 -1.2597504e-22)
(0.85671778 0.043699256 -1.2551433e-22)
(0.85671778 0.043699238 1.2505701e-22)
(0.85671777 0.043699212 0)
(0.85671779 0.043699275 4.4533664e-21)
(0.85671779 0.043699275 4.3660773e-21)
(0.85671779 0.043699275 -1.3804814e-22)
(0.85671779 0.043699275 1.3749511e-22)
(0.85671779 0.043699275 0)
(0.85671779 0.043699274 1.3640224e-22)
(0.85671779 0.043699271 -4.3475932e-21)
(0.85671779 0.043699266 4.3304511e-21)
(0.85671777 0.043699253 0)
(0.85671773 0.043699206 1.3426779e-22)
(0.85671765 0.043699048 1.3374457e-22)
(0.8567175 0.0436986 1.3322541e-22)
(0.85671725 0.043697667 -6.6354087e-23)
(0.85671701 0.043696441 4.2303689e-21)
(0.85671779 0.043699275 -9.4431723e-21)
(0.85671779 0.043699275 -4.7382328e-21)
(0.85671779 0.043699275 4.6441617e-21)
(0.85671779 0.043699276 0)
(0.85671779 0.043699277 -7.3088926e-23)
(0.85671778 0.04369927 -7.2778929e-23)
(0.85671774 0.043699225 4.6381826e-21)
(0.8567176 0.04369904 -4.6186775e-21)
(0.85671718 0.043698441 0)