/*--------------------------------*- C++ -*----------------------------------*\
| =========                 |                                                 |
| \\      /  F ield         | OpenFOAM: The Open Source CFD Toolbox           |
|  \\    /   O peration     | Version:  2206                                  |
|   \\  /    A nd           | Website:  www.openfoam.com                      |
|    \\/     M anipulation  |                                                 |
\*---------------------------------------------------------------------------*/
FoamFile
{
    version     2.0;
    format      ascii;
    arch        "LSB;label=32;scalar=64";
    class       volVectorField;
    location    "0.01";
    object      U;
}
// * * * * * * * * * * * * * * * * * * * * * * * * * * * * * * * * * * * * * //

dimensions      [0 1 -1 0 0 0 0];

internalField   nonuniform List<vector> 
1400
(
(0.85671779 0.043699275 0)
(0.85671779 0.043699275 0)
(0.85671779 0.043699275 0)
(0.85671779 0.043699275 -1.0137211e-21)
(0.85671779 0.043699275 1.0137178e-21)
(0.85671779 0.043699275 -1.0137144e-21)
(0.85671779 0.043699275 1.0137111e-21)
(0.85671779 0.043699275 -5.0685391e-22)
(0.85671779 0.043699275 1.0137045e-21)
(0.85671779 0.043699275 -5.0685059e-22)
(0.85671779 0.043699275 0)
(0.85671779 0.043699275 0)
(0.85671779 0.043699275 0)
(0.85671779 0.043699275 2.5342197e-22)
(0.85671779 0.043699275 2.1541345e-21)
(0.85671779 0.043699275 -2.1541268e-21)
(0.85671779 0.043699275 1.0770597e-21)
(0.85671779 0.043699275 -1.0770559e-21)
(0.85671779 0.043699275 -1.0770522e-21)
(0.85671779 0.043699275 1.0770485e-21)
(0.85671779 0.043699275 -5.3852236e-22)
(0.85671779 0.043699275 5.3852049e-22)
(0.85671779 0.043699275 0)
(0.85671779 0.043699275 -2.6925837e-22)
(0.85671779 0.043699275 4.0388616e-22)
(0.85671779 0.043699275 -1.3462825e-22)
(0.85671779 0.043699275 0)
(0.85671779 0.043699275 -2.6925462e-22)
(0.85671779 0.043699275 0)
(0.85671779 0.043699275 0)
(0.85671779 0.043699275 0)
(0.85671779 0.043699275 0)
(0.85671779 0.043699275 0)
(0.85671779 0.043699275 1.1488237e-21)
(0.85671779 0.043699275 -1.1488195e-21)
(0.85671779 0.043699275 -5.7440762e-22)
(0.85671779 0.043699275 5.7440549e-22)
(0.85671779 0.043699275 -2.8720168e-22)
(0.85671779 0.043699275 2.8720062e-22)
(0.85671779 0.043699275 0)
(0.85671779 0.043699275 0)
(0.85671779 0.043699275 0)
(0.85671779 0.043699275 0)
(0.85671779 0.043699275 0)
(0.85671779 0.043699275 0)
(0.85671779 0.043699275 0)
(0.85671779 0.043699275 0)
(0.85671779 0.043699275 -1.2308483e-21)
(0.85671779 0.043699275 6.1542173e-22)
(0.85671779 0.043699275 6.1541929e-22)
(0.85671779 0.043699275 0)
(0.85671779 0.043699275 -3.077072e-22)
(0.85671779 0.043699275 3.0770598e-22)
(0.85671779 0.043699275 0)
(0.85671779 0.043699275 0)
(0.85671779 0.043699275 0)
(0.85671779 0.043699275 0)
(0.85671779 0.043699275 -1.3255091e-21)
(0.85671779 0.043699275 1.3255034e-21)
(0.85671779 0.043699275 0)
(0.85671779 0.043699275 1.3254921e-21)
(0.85671779 0.043699275 -1.3254864e-21)
(0.85671779 0.043699275 0)
(0.85671779 0.043699275 0)
(0.85671779 0.043699275 0)
(0.85671779 0.043699275 -3.3136594e-22)
(0.85671779 0.043699275 3.3136452e-22)
(0.85671779 0.043699275 0)
(0.85671779 0.043699275 0)
(0.85671779 0.043699275 0)
(0.85671779 0.043699275 -2.8718467e-21)
(0.85671779 0.043699275 2.8718329e-21)
(0.85671779 0.043699275 1.4359098e-21)
(0.85671779 0.043699275 -1.4359031e-21)
(0.85671779 0.043699275 0)
(0.85671779 0.043699275 0)
(0.85671779 0.043699275 0)
(0.85671779 0.043699275 -7.1793827e-22)
(0.85671779 0.043699275 7.1793495e-22)
(0.85671779 0.043699275 0)
(0.85671779 0.043699275 0)
(0.85671779 0.043699275 0)
(0.85671779 0.043699275 0)
(0.85671779 0.043699275 0)
(0.85671779 0.043699275 -3.5010529e-33)
(0.85671779 0.043699275 1.5663876e-21)
(0.85671779 0.043699275 3.1327593e-21)
(0.85671779 0.043699275 -1.5663718e-21)
(0.85671779 0.043699275 0)
(0.85671779 0.043699275 -1.5663559e-21)
(0.85671779 0.043699275 1.566348e-21)
(0.85671779 0.043699275 0)
(0.85671779 0.043699275 0)
(0.85671779 0.043699275 3.9158107e-22)
(0.85671779 0.043699275 -3.9157909e-22)
(0.85671779 0.043699275 4.8947139e-23)
(0.85671779 0.043699275 -4.8946892e-23)
(0.85671779 0.043699275 0)
(0.85671779 0.043699275 -3.4458967e-21)
(0.85671779 0.043699275 5.1688147e-21)
(0.85671779 0.043699275 -1.7229287e-21)
(0.85671779 0.043699275 0)
(0.85671779 0.043699275 0)
(0.85671779 0.043699275 0)
(0.85671779 0.043699275 0)
(0.85671779 0.043699275 0)
(0.85671779 0.043699275 0)
(0.85671779 0.043699275 0)
(0.85671779 0.043699275 0)
(0.85671779 0.043699275 0)
(0.85671779 0.043699275 0)
(0.85671779 0.043699275 0)
(0.85671779 0.043699275 0)
(0.85671779 0.043699275 0)
(0.85671779 0.043699275 0)
(0.85671779 0.043699275 1.9142325e-21)
(0.85671779 0.043699275 -1.9142207e-21)
(0.85671779 0.043699275 0)
(0.85671779 0.043699275 0)
(0.85671779 0.043699275 0)
(0.85671779 0.043699275 0)
(0.85671779 0.043699275 4.785404e-22)
(0.85671779 0.043699275 -2.3926872e-22)
(0.85671779 0.043699275 -2.3926725e-22)
(0.85671779 0.043699275 0)
(0.85671779 0.043699275 -4.7852859e-22)
(0.85671779 0.043699275 0)
(0.85671779 0.043699275 -2.1533698e-21)
(0.85671779 0.043699275 -1.1155026e-33)
(0.85671779 0.043699275 -2.5819426e-35)
(0.85671779 0.043699275 2.153325e-21)
(0.85671779 0.043699275 0)
(0.85671779 0.043699275 0)
(0.85671779 0.043699275 0)
(0.85671779 0.043699275 -1.0766326e-21)
(0.85671779 0.043699275 5.3831255e-22)
(0.85671779 0.043699275 5.3830881e-22)
(0.85671779 0.043699275 0)
(0.85671779 0.043699275 0)
(0.85671779 0.043699275 0)
(0.85671779 0.043699275 0)
(0.85671779 0.043699275 -2.4607466e-21)
(0.85671779 0.043699275 2.4607271e-21)
(0.85671779 0.043699275 0)
(0.85671779 0.043699275 -2.460688e-21)
(0.85671779 0.043699275 2.4606685e-21)
(0.85671779 0.043699275 -1.2303245e-21)
(0.85671779 0.043699275 1.2303147e-21)
(0.85671779 0.043699275 1.230305e-21)
(0.85671779 0.043699275 -1.8454428e-21)
(0.85671779 0.043699275 6.1514272e-22)
(0.85671779 0.043699275 0)
(0.85671779 0.043699275 0)
(0.85671779 0.043699275 6.1512813e-22)
(0.85671779 0.043699275 -5.7410312e-21)
(0.85671779 0.043699275 8.6114576e-21)
(0.85671779 0.043699275 -2.8704593e-21)
(0.85671779 0.043699275 -2.8704327e-21)
(0.85671779 0.043699275 2.8704062e-21)
(0.85671779 0.043699275 0)
(0.85671779 0.043699275 0)
(0.85671779 0.043699275 0)
(0.85671779 0.043699275 -1.4351499e-21)
(0.85671779 0.043699275 7.1756832e-22)
(0.85671779 0.043699275 7.1756168e-22)
(0.85671779 0.043699275 0)
(0.85671779 0.043699275 0)
(0.85671779 0.043699275 0)
(0.85671779 0.043699275 0)
(0.85671779 0.043699275 0)
(0.85671779 0.043699275 0)
(0.85671779 0.043699275 3.4438589e-21)
(0.85671779 0.043699275 -3.4438207e-21)
(0.85671779 0.043699275 0)
(0.85671779 0.043699275 0)
(0.85671779 0.043699275 0)
(0.85671779 0.043699275 0)
(0.85671779 0.043699275 8.6090736e-22)
(0.85671779 0.043699275 -4.304489e-22)
(0.85671779 0.043699275 -4.3044412e-22)
(0.85671779 0.043699275 4.3043934e-22)
(0.85671779 0.043699275 -4.3043475e-22)
(0.85671779 0.043699275 0)
(0.85671779 0.043699275 0)
(0.85671779 0.043699275 0)
(0.85671779 0.043699275 -1.6938254e-22)
(0.85671779 0.043699275 0)
(0.85671779 0.043699275 1.7136932e-22)
(0.85671779 0.043699275 0)
(0.85671779 0.043699275 1.7340325e-22)
(0.85671779 0.043699275 -1.7443844e-22)
(0.85671779 0.043699275 0)
(0.85671779 0.043699275 -1.7654633e-22)
(0.85671779 0.043699275 0)
(0.85671779 0.043699275 1.7870579e-22)
(0.85671779 0.043699275 1.7980545e-22)
(0.85671779 0.043699275 1.8091873e-22)
(0.85671779 0.043699275 1.6744131e-22)
(0.85671779 0.043699275 0)
(0.85671779 0.043699275 0)
(0.85671779 0.043699275 0)
(0.85671779 0.043699275 -1.7136932e-22)
(0.85671779 0.043699275 -1.7238029e-22)
(0.85671779 0.043699275 -1.7340326e-22)
(0.85671779 0.043699275 0)
(0.85671779 0.043699275 0)
(0.85671779 0.043699275 0)
(0.85671779 0.043699275 1.776195e-22)
(0.85671779 0.043699275 0)
(0.85671779 0.043699275 -1.7980546e-22)
(0.85671779 0.043699275 -1.8091874e-22)
(0.85671779 0.043699275 -3.3488263e-22)
(0.85671779 0.043699275 0)
(0.85671779 0.043699275 0)
(0.85671779 0.043699275 0)
(0.85671779 0.043699275 3.4273866e-22)
(0.85671779 0.043699275 3.447606e-22)
(0.85671779 0.043699275 0)
(0.85671779 0.043699275 1.7443845e-22)
(0.85671779 0.043699275 1.7548607e-22)
(0.85671779 0.043699275 0)
(0.85671779 0.043699275 -1.7761951e-22)
(0.85671779 0.043699275 1.787058e-22)
(0.85671779 0.043699275 0)
(0.85671779 0.043699275 1.8091874e-22)
(0.85671779 0.043699275 8.3720661e-23)
(0.85671779 0.043699275 0)
(0.85671779 0.043699275 8.469128e-23)
(0.85671779 0.043699275 0)
(0.85671779 0.043699275 -2.5705401e-22)
(0.85671779 0.043699275 -1.7238031e-22)
(0.85671779 0.043699275 -8.6701639e-23)
(0.85671779 0.043699275 -2.6165769e-22)
(0.85671779 0.043699275 -1.7548608e-22)
(0.85671779 0.043699275 -8.8273176e-23)
(0.85671779 0.043699275 0)
(0.85671779 0.043699275 -1.7870581e-22)
(0.85671779 0.043699275 -8.9902737e-23)
(0.85671779 0.043699275 -1.8091875e-22)
(0.85671779 0.043699275 8.3720664e-23)
(0.85671779 0.043699275 0)
(0.85671779 0.043699275 -8.4691284e-23)
(0.85671779 0.043699275 0)
(0.85671779 0.043699275 1.7136935e-22)
(0.85671779 0.043699275 8.6190158e-23)
(0.85671779 0.043699275 8.6701643e-23)
(0.85671779 0.043699275 1.7443847e-22)
(0.85671779 0.043699275 0)
(0.85671779 0.043699275 8.827318e-23)
(0.85671779 0.043699275 0)
(0.85671779 0.043699275 0)
(0.85671779 0.043699275 8.9902741e-23)
(0.85671779 0.043699275 0)
(0.85671779 0.043699275 0)
(0.85671779 0.043699275 0)
(0.85671779 0.043699275 0)
(0.85671779 0.043699275 0)
(0.85671779 0.043699275 -8.5684677e-23)
(0.85671779 0.043699275 -8.6190162e-23)
(0.85671779 0.043699275 0)
(0.85671779 0.043699275 -1.7443848e-22)
(0.85671779 0.043699275 0)
(0.85671779 0.043699275 -8.8273185e-23)
(0.85671779 0.043699275 0)
(0.85671779 0.043699275 0)
(0.85671779 0.043699275 0)
(0.85671779 0.043699275 -9.0459385e-23)
(0.85671779 0.043699275 8.3720672e-23)
(0.85671779 0.043699275 0)
(0.85671779 0.043699275 0)
(0.85671779 0.043699275 0)
(0.85671779 0.043699275 0)
(0.85671779 0.043699275 0)
(0.85671779 0.043699275 0)
(0.85671779 0.043699275 8.7219242e-23)
(0.85671779 0.043699275 0)
(0.85671779 0.043699275 8.8273188e-23)
(0.85671779 0.043699275 0)
(0.85671779 0.043699275 0)
(0.85671779 0.043699275 0)
(0.85671779 0.043699275 9.0459389e-23)
(0.85671779 0.043699275 -8.3720675e-23)
(0.85671779 0.043699275 0)
(0.85671779 0.043699275 0)
(0.85671779 0.043699275 0)
(0.85671779 0.043699275 8.5684684e-23)
(0.85671779 0.043699275 8.6190169e-23)
(0.85671779 0.043699275 -8.6701654e-23)
(0.85671779 0.043699275 0)
(0.85671779 0.043699275 0)
(0.85671779 0.043699275 0)
(0.85671779 0.043699275 0)
(0.85671779 0.043699275 -8.9352922e-23)
(0.85671779 0.043699275 -8.9902753e-23)
(0.85671779 0.043699275 0)
(0.85671779 0.043699275 0)
(0.85671779 0.043699275 0)
(0.85671779 0.043699275 0)
(0.85671779 0.043699275 0)
(0.85671779 0.043699275 -1.2852703e-22)
(0.85671779 0.043699275 -8.6190173e-23)
(0.85671779 0.043699275 4.3350829e-23)
(0.85671779 0.043699275 -4.3609625e-23)
(0.85671779 0.043699275 0)
(0.85671779 0.043699275 -4.4136598e-23)
(0.85671779 0.043699275 0)
(0.85671779 0.043699275 1.3402939e-22)
(0.85671779 0.043699275 4.4951379e-23)
(0.85671779 0.043699275 -4.5229699e-23)
(0.85671779 0.043699275 -4.1860341e-23)
(0.85671779 0.043699275 0)
(0.85671779 0.043699275 4.2345651e-23)
(0.85671779 0.043699275 0)
(0.85671779 0.043699275 8.5684692e-23)
(0.85671779 0.043699275 0)
(0.85671779 0.043699275 8.6701662e-23)
(0.85671779 0.043699275 8.7219253e-23)
(0.85671779 0.043699275 4.3871531e-23)
(0.85671779 0.043699275 8.8273201e-23)
(0.85671779 0.043699275 0)
(0.85671779 0.043699275 -4.4676465e-23)
(0.85671779 0.043699275 8.9902762e-23)
(0.85671779 0.043699275 4.5229701e-23)
(0.85671779 0.043699275 2.0930171e-23)
(0.85671779 0.043699275 0)
(0.85671779 0.043699275 -6.351848e-23)
(0.85671779 0.043699275 0)
(0.85671779 0.043699275 -4.2842348e-23)
(0.85671779 0.043699275 0)
(0.85671779 0.043699275 -4.3350833e-23)
(0.85671779 0.043699275 -4.3609629e-23)
(0.85671779 0.043699275 -4.3871533e-23)
(0.85671779 0.043699275 -4.4136602e-23)
(0.85671779 0.043699275 0)
(0.85671779 0.043699275 0)
(0.85671779 0.043699275 -4.4951383e-23)
(0.85671779 0.043699275 0)
(0.85671779 0.043699275 2.0930172e-23)
(0.85671779 0.043699275 0)
(0.85671779 0.043699275 1.0586414e-23)
(0.85671779 0.043699275 0)
(0.85671779 0.043699275 0)
(0.85671779 0.043699275 0)
(0.85671779 0.043699275 1.0837709e-23)
(0.85671779 0.043699275 0)
(0.85671779 0.043699275 0)
(0.85671779 0.043699275 -1.1034151e-23)
(0.85671779 0.043699275 0)
(0.85671779 0.043699275 0)
(0.85671779 0.043699275 0)
(0.85671779 0.043699275 0)
(0.85671779 0.043699275 0)
(0.85671779 0.043699275 0)
(0.85671779 0.043699275 1.0586414e-23)
(0.85671779 0.043699275 0)
(0.85671779 0.043699275 0)
(0.85671779 0.043699275 0)
(0.85671779 0.043699275 -1.0837709e-23)
(0.85671779 0.043699275 0)
(0.85671779 0.043699275 0)
(0.85671779 0.043699275 1.1034152e-23)
(0.85671779 0.043699275 0)
(0.85671779 0.043699275 0)
(0.85671779 0.043699275 0)
(0.85671779 0.043699275 0)
(0.85671779 0.043699275 1.4854871e-22)
(0.85671779 0.043699275 0)
(0.85671779 0.043699275 0)
(0.85671779 0.043699275 1.2309229e-22)
(0.85671779 0.043699275 0)
(0.85671779 0.043699275 0)
(0.85671779 0.043699275 0)
(0.85671779 0.043699275 1.0019804e-22)
(0.85671779 0.043699275 0)
(0.85671779 0.043699275 -9.1672811e-23)
(0.85671779 0.043699275 -8.7932016e-23)
(0.85671779 0.043699275 0)
(0.85671779 0.043699275 -1.485481e-22)
(0.85671779 0.043699275 0)
(0.85671779 0.043699275 2.6109829e-22)
(0.85671779 0.043699275 -1.2309188e-22)
(0.85671779 0.043699275 0)
(0.85671779 0.043699275 2.209423e-22)
(0.85671779 0.043699275 0)
(0.85671779 0.043699275 -3.0059331e-22)
(0.85671779 0.043699275 0)
(0.85671779 0.043699275 2.7501776e-22)
(0.85671779 0.043699275 8.7931809e-23)
(0.85671779 0.043699275 0)
(0.85671779 0.043699275 0)
(0.85671779 0.043699275 0)
(0.85671779 0.043699275 -2.6109741e-22)
(0.85671779 0.043699275 0)
(0.85671779 0.043699275 0)
(0.85671779 0.043699275 -6.62825e-22)
(0.85671779 0.043699275 0)
(0.85671779 0.043699275 2.0039502e-22)
(0.85671779 0.043699275 0)
(0.85671779 0.043699275 -1.8334474e-22)
(0.85671779 0.043699275 0)
(0.85671779 0.043699275 0)
(0.85671779 0.043699275 -5.9418785e-22)
(0.85671779 0.043699275 0)
(0.85671779 0.043699275 -5.2219306e-22)
(0.85671779 0.043699275 -4.9236439e-22)
(0.85671779 0.043699275 0)
(0.85671779 0.043699275 4.4188207e-22)
(0.85671779 0.043699275 0)
(0.85671779 0.043699275 0)
(0.85671779 0.043699275 3.8298124e-22)
(0.85671779 0.043699275 -3.6668861e-22)
(0.85671779 0.043699275 3.5172564e-22)
(0.85671779 0.043699275 0)
(0.85671779 0.043699275 5.9418558e-22)
(0.85671779 0.043699275 0)
(0.85671779 0.043699275 2.4129145e-34)
(0.85671779 0.043699275 -5.4663254e-34)
(0.85671779 0.043699275 0)
(0.85671779 0.043699275 0)
(0.85671779 0.043699275 4.2033245e-22)
(0.85671779 0.043699275 0)
(0.85671779 0.043699275 -3.8298029e-22)
(0.85671779 0.043699275 3.6668774e-22)
(0.85671779 0.043699275 -3.5172484e-22)
(0.85671779 0.043699275 -3.3793521e-22)
(0.85671779 0.043699275 0)
(0.85671779 0.043699275 0)
(0.85671779 0.043699275 5.2218955e-22)
(0.85671779 0.043699275 4.9236126e-22)
(0.85671779 0.043699275 -9.3151304e-22)
(0.85671779 0.043699275 0)
(0.85671779 0.043699275 -4.2033131e-22)
(0.85671779 0.043699275 0)
(0.85671779 0.043699275 0)
(0.85671779 0.043699275 0)
(0.85671779 0.043699275 0)
(0.85671779 0.043699275 3.3793447e-22)
(0.85671779 0.043699275 0)
(0.85671779 0.043699275 0)
(0.85671779 0.043699275 0)
(0.85671779 0.043699275 0)
(0.85671779 0.043699275 9.3151024e-22)
(0.85671779 0.043699275 -8.8375658e-22)
(0.85671779 0.043699275 0)
(0.85671779 0.043699275 0)
(0.85671779 0.043699275 0)
(0.85671779 0.043699275 0)
(0.85671779 0.043699275 -7.0344649e-22)
(0.85671779 0.043699275 0)
(0.85671779 0.043699275 1.1883575e-21)
(0.85671779 0.043699275 0)
(0.85671779 0.043699275 0)
(0.85671779 0.043699275 9.8471627e-22)
(0.85671779 0.043699275 0)
(0.85671779 0.043699275 1.7675081e-21)
(0.85671779 0.043699275 0)
(0.85671779 0.043699275 -8.0156974e-22)
(0.85671779 0.043699275 0)
(0.85671779 0.043699275 0)
(0.85671779 0.043699275 7.034449e-22)
(0.85671779 0.043699275 6.7586599e-22)
(0.85671779 0.043699275 -1.1883529e-21)
(0.85671779 0.043699275 0)
(0.85671779 0.043699275 0)
(0.85671779 0.043699275 -9.8471314e-22)
(0.85671779 0.043699275 -9.3150463e-22)
(0.85671779 0.043699275 -8.8375154e-22)
(0.85671779 0.043699275 0)
(0.85671779 0.043699275 1.6031353e-21)
(0.85671779 0.043699275 0)
(0.85671779 0.043699275 0)
(0.85671779 0.043699275 0)
(0.85671779 0.043699275 -1.351729e-21)
(0.85671779 0.043699275 0)
(0.85671779 0.043699275 1.1117141e-21)
(0.85671779 0.043699275 0)
(0.85671779 0.043699275 0)
(0.85671779 0.043699275 9.3150184e-22)
(0.85671779 0.043699275 -8.8374903e-22)
(0.85671779 0.043699275 0)
(0.85671779 0.043699275 7.3667294e-34)
(0.85671779 0.043699275 0)
(0.85671779 0.043699275 7.3336681e-22)
(0.85671779 0.043699275 0)
(0.85671779 0.043699275 6.7586305e-22)
(0.85671779 0.043699275 -2.3766876e-21)
(0.85671779 0.043699275 1.1117101e-21)
(0.85671779 0.043699275 -2.088723e-21)
(0.85671779 0.043699275 -1.9694138e-21)
(0.85671779 0.043699275 0)
(0.85671779 0.043699275 8.8374651e-22)
(0.85671779 0.043699275 0)
(0.85671779 0.043699275 -8.0156352e-22)
(0.85671779 0.043699275 -1.5318985e-21)
(0.85671779 0.043699275 -2.2000952e-21)
(0.85671779 0.043699275 1.4068802e-21)
(0.85671779 0.043699275 0)
(0.85671779 0.043699275 -3.8574326e-33)
(0.85671779 0.043699275 -4.4468245e-21)
(0.85671779 0.043699275 -2.2029936e-34)
(0.85671779 0.043699275 1.5633343e-33)
(0.85671779 0.043699275 0)
(0.85671779 0.043699275 -1.767488e-21)
(0.85671779 0.043699275 -1.6812979e-21)
(0.85671779 0.043699275 0)
(0.85671779 0.043699275 3.0426324e-34)
(0.85671779 0.043699275 1.4667267e-21)
(0.85671779 0.043699275 -2.8137541e-21)
(0.85671779 0.043699275 -1.3517202e-21)
(0.85671779 0.043699275 2.3766695e-21)
(0.85671779 0.043699275 2.2234043e-21)
(0.85671779 0.043699275 1.2652097e-33)
(0.85671779 0.043699275 1.9694013e-21)
(0.85671779 0.043699275 0)
(0.85671779 0.043699275 1.767483e-21)
(0.85671779 0.043699275 1.6812933e-21)
(0.85671779 0.043699275 0)
(0.85671779 0.043699275 1.5318909e-21)
(0.85671779 0.043699275 1.4667232e-21)
(0.85671779 0.043699275 1.4068738e-21)
(0.85671779 0.043699275 2.7034345e-21)
(0.85671779 0.043699275 -2.3766601e-21)
(0.85671779 0.043699275 2.2233961e-21)
(0.85671779 0.043699275 -2.2948079e-33)
(0.85671779 0.043699275 0)
(0.85671779 0.043699275 0)
(0.85671779 0.043699275 0)
(0.85671779 0.043699275 0)
(0.85671779 0.043699275 1.6031145e-21)
(0.85671779 0.043699275 0)
(0.85671779 0.043699275 -1.4667197e-21)
(0.85671779 0.043699275 1.4068706e-21)
(0.85671779 0.043699275 -1.3517142e-21)
(0.85671779 0.043699275 0)
(0.85671779 0.043699275 -7.8681393e-21)
(0.85671779 0.043699275 7.4434772e-21)
(0.85671779 0.043699275 -7.0623079e-21)
(0.85671779 0.043699275 3.053626e-33)
(0.85671779 0.043699275 0)
(0.85671779 0.043699275 6.121837e-21)
(0.85671779 0.043699275 5.8616432e-21)
(0.85671779 0.043699275 0)
(0.85671779 0.043699275 5.40241e-21)
(0.85671779 0.043699275 1.6703541e-33)
(0.85671779 0.043699275 5.0099067e-21)
(0.85671779 0.043699275 8.3441961e-21)
(0.85671779 0.043699275 -7.8681481e-21)
(0.85671779 0.043699275 -7.4434866e-21)
(0.85671779 0.043699275 7.0623172e-21)
(0.85671779 0.043699275 -6.7182841e-21)
(0.85671779 0.043699275 -6.4062124e-21)
(0.85671779 0.043699275 -6.1218459e-21)
(0.85671779 0.043699275 6.259796e-33)
(0.85671779 0.043699275 -5.6226739e-21)
(0.85671779 0.043699275 -5.4024187e-21)
(0.85671779 0.043699275 -1.0397538e-20)
(0.85671779 0.043699275 -5.0099149e-21)
(0.85671779 0.043699275 -8.3442241e-21)
(0.85671779 0.043699275 1.5736346e-20)
(0.85671779 0.043699275 -7.4435087e-21)
(0.85671779 0.043699275 -7.0623373e-21)
(0.85671779 0.043699275 6.7183026e-21)
(0.85671779 0.043699275 6.4062291e-21)
(0.85671779 0.043699275 -6.121861e-21)
(0.85671779 0.043699275 -5.8616657e-21)
(0.85671779 0.043699275 -9.2700177e-34)
(0.85671779 0.043699275 5.4024304e-21)
(0.85671779 0.043699275 5.1987797e-21)
(0.85671779 0.043699275 -5.3335303e-33)
(0.85671779 0.043699275 0)
(0.85671779 0.043699275 -7.868198e-21)
(0.85671779 0.043699275 -7.9102815e-33)
(0.85671779 0.043699275 -5.465032e-34)
(0.85671779 0.043699275 -1.3436641e-20)
(0.85671779 0.043699275 0)
(0.85671779 0.043699275 6.1218763e-21)
(0.85671779 0.043699275 0)
(0.85671779 0.043699275 5.6226994e-21)
(0.85671779 0.043699275 -5.4024422e-21)
(0.85671779 0.043699275 5.1987905e-21)
(0.85671779 0.043699275 5.0099351e-21)
(0.85671779 0.043699275 8.3442805e-21)
(0.85671779 0.043699275 -7.8682232e-21)
(0.85671779 0.043699275 7.4435536e-21)
(0.85671779 0.043699275 -3.7298754e-33)
(0.85671779 0.043699275 6.718339e-21)
(0.85671779 0.043699275 -6.4062622e-21)
(0.85671779 0.043699275 -6.1218914e-21)
(0.85671779 0.043699275 0)
(0.85671779 0.043699275 -5.6227121e-21)
(0.85671779 0.043699275 4.4024796e-33)
(0.85671779 0.043699275 -5.1988014e-21)
(0.85671779 0.043699275 0)
(0.85671779 0.043699275 4.0280061e-33)
(0.85671779 0.043699275 -3.3081376e-33)
(0.85671779 0.043699275 0)
(0.85671779 0.043699275 5.2533604e-35)
(0.85671779 0.043699275 0)
(0.85671779 0.043699275 6.4062788e-21)
(0.85671779 0.043699275 6.1219065e-21)
(0.85671779 0.043699275 0)
(0.85671779 0.043699275 3.3141319e-33)
(0.85671779 0.043699275 3.7493135e-33)
(0.85671779 0.043699275 -5.1988123e-21)
(0.85671779 0.043699275 0)
(0.85671779 0.043699275 -8.3443364e-21)
(0.85671779 0.043699275 7.8682729e-21)
(0.85671779 0.043699275 0)
(0.85671779 0.043699275 7.0624179e-21)
(0.85671779 0.043699275 0)
(0.85671779 0.043699275 0)
(0.85671779 0.043699275 0)
(0.85671779 0.043699275 0)
(0.85671779 0.043699275 5.6227376e-21)
(0.85671779 0.043699275 5.4024775e-21)
(0.85671779 0.043699275 5.1988233e-21)
(0.85671779 0.043699275 0)
(0.85671779 0.043699275 -8.3443645e-21)
(0.85671779 0.043699275 -7.8682979e-21)
(0.85671779 0.043699275 -7.4436206e-21)
(0.85671779 0.043699275 -7.062438e-21)
(0.85671779 0.043699275 0)
(0.85671779 0.043699275 0)
(0.85671779 0.043699275 -6.1219366e-21)
(0.85671779 0.043699275 -5.861735e-21)
(0.85671779 0.043699275 -5.6227504e-21)
(0.85671779 0.043699275 0)
(0.85671779 0.043699275 5.1988342e-21)
(0.85671779 0.043699275 5.0099755e-21)
(0.85671779 0.043699275 3.3332365e-33)
(0.85671779 0.043699275 7.8683228e-21)
(0.85671779 0.043699275 -4.3055981e-34)
(0.85671779 0.043699275 -1.3078627e-33)
(0.85671779 0.043699275 0)
(0.85671779 0.043699275 -6.4063284e-21)
(0.85671779 0.043699275 1.2243904e-20)
(0.85671779 0.043699275 1.1723498e-20)
(0.85671779 0.043699275 5.6227631e-21)
(0.85671779 0.043699275 -5.402501e-21)
(0.85671779 0.043699275 -5.198845e-21)
(0.85671779 0.043699275 -1.0019971e-20)
(0.85671779 0.043699275 8.3444209e-21)
(0.85671779 0.043699275 0)
(0.85671779 0.043699275 7.4436653e-21)
(0.85671779 0.043699275 7.0624782e-21)
(0.85671779 0.043699275 0)
(0.85671779 0.043699275 6.406345e-21)
(0.85671779 0.043699275 -1.2243934e-20)
(0.85671779 0.043699275 -5.8617628e-21)
(0.85671779 0.043699275 0)
(0.85671779 0.043699275 5.4025127e-21)
(0.85671779 0.043699275 -5.1988559e-21)
(0.85671779 0.043699275 5.0099958e-21)
(0.85671779 0.043699275 8.3444489e-21)
(0.85671779 0.043699275 0)
(0.85671779 0.043699275 7.4436876e-21)
(0.85671779 0.043699275 0)
(0.85671779 0.043699275 0)
(0.85671779 0.043699275 6.4063615e-21)
(0.85671779 0.043699275 6.121982e-21)
(0.85671779 0.043699275 0)
(0.85671779 0.043699275 -5.6227886e-21)
(0.85671779 0.043699275 -5.4025246e-21)
(0.85671779 0.043699275 5.1988668e-21)
(0.85671779 0.043699275 -5.0100059e-21)
(0.85671779 0.043699275 -8.3444768e-21)
(0.85671779 0.043699275 -7.8683977e-21)
(0.85671779 0.043699275 -7.4437098e-21)
(0.85671779 0.043699275 0)
(0.85671779 0.043699275 0)
(0.85671779 0.043699275 -1.2812756e-20)
(0.85671779 0.043699275 0)
(0.85671779 0.043699275 5.8617904e-21)
(0.85671779 0.043699275 5.6228014e-21)
(0.85671779 0.043699275 5.441404e-33)
(0.85671779 0.043699275 5.1988778e-21)
(0.85671779 0.043699275 5.010016e-21)
(0.85671779 0.043699275 0)
(0.85671779 0.043699275 7.8684227e-21)
(0.85671779 0.043699275 -7.4437323e-21)
(0.85671779 0.043699275 7.0625384e-21)
(0.85671779 0.043699275 -6.7184843e-21)
(0.85671779 0.043699275 6.4063945e-21)
(0.85671779 0.043699275 0)
(0.85671779 0.043699275 -5.8618043e-21)
(0.85671779 0.043699275 0)
(0.85671779 0.043699275 5.4025481e-21)
(0.85671779 0.043699275 -5.1988887e-21)
(0.85671779 0.043699275 0)
(0.85671779 0.043699275 0)
(0.85671779 0.043699275 0)
(0.85671779 0.043699275 7.4437546e-21)
(0.85671779 0.043699275 -3.5312793e-21)
(0.85671779 0.043699275 6.7185028e-21)
(0.85671779 0.043699275 -3.2032056e-21)
(0.85671779 0.043699275 -3.0610137e-21)
(0.85671779 0.043699275 0)
(0.85671779 0.043699275 -2.8114134e-21)
(0.85671779 0.043699275 0)
(0.85671779 0.043699275 -2.5994497e-21)
(0.85671779 0.043699275 0)
(0.85671779 0.043699275 0)
(0.85671779 0.043699275 5.6566671e-35)
(0.85671779 0.043699275 0)
(0.85671779 0.043699275 0)
(0.85671779 0.043699275 2.9310074e-21)
(0.85671779 0.043699275 -6.122242e-21)
(0.85671779 0.043699275 0)
(0.85671779 0.043699275 0)
(0.85671779 0.043699275 0)
(0.85671779 0.043699275 3.7220366e-21)
(0.85671779 0.043699275 0)
(0.85671779 0.043699275 0)
(0.85671779 0.043699275 8.8823959e-21)
(0.85671779 0.043699275 0)
(0.85671779 0.043699275 -2.5995206e-21)
(0.85671779 0.043699275 0)
(0.85671779 0.043699275 -2.8114963e-21)
(0.85671779 0.043699275 -2.9309991e-21)
(0.85671779 0.043699275 3.0611118e-21)
(0.85671779 0.043699275 3.2033131e-21)
(0.85671779 0.043699275 -3.3593696e-21)
(0.85671779 0.043699275 3.53141e-21)
(0.85671779 0.043699275 2.8111867e-33)
(0.85671779 0.043699275 -3.9343861e-21)
(0.85671779 0.043699275 4.172449e-21)
(0.85671779 0.043699275 5.1220077e-33)
(0.85671779 0.043699275 -2.5050788e-21)
(0.85671779 0.043699275 -2.5995151e-21)
(0.85671779 0.043699275 0)
(0.85671779 0.043699275 5.6229798e-21)
(0.85671779 0.043699275 5.8619846e-21)
(0.85671779 0.043699275 0)
(0.85671779 0.043699275 -3.2033049e-21)
(0.85671779 0.043699275 3.3593606e-21)
(0.85671779 0.043699275 -3.5314e-21)
(0.85671779 0.043699275 2.224397e-33)
(0.85671779 0.043699275 7.8687472e-21)
(0.85671779 0.043699275 -8.34487e-21)
(0.85671779 0.043699275 -8.8823217e-21)
(0.85671779 0.043699275 2.5050738e-21)
(0.85671779 0.043699275 2.5995097e-21)
(0.85671779 0.043699275 0)
(0.85671779 0.043699275 1.3949419e-33)
(0.85671779 0.043699275 -2.9309853e-21)
(0.85671779 0.043699275 3.0610967e-21)
(0.85671779 0.043699275 -3.2032965e-21)
(0.85671779 0.043699275 3.3593514e-21)
(0.85671779 0.043699275 -3.5313899e-21)
(0.85671779 0.043699275 -3.7220002e-21)
(0.85671779 0.043699275 -3.9343611e-21)
(0.85671779 0.043699275 4.1724209e-21)
(0.85671779 0.043699275 1.1606777e-33)
(0.85671779 0.043699275 2.5050687e-21)
(0.85671779 0.043699275 0)
(0.85671779 0.043699275 0)
(0.85671779 0.043699275 -2.8114772e-21)
(0.85671779 0.043699275 -2.9309783e-21)
(0.85671779 0.043699275 -3.0610892e-21)
(0.85671779 0.043699275 3.2032883e-21)
(0.85671779 0.043699275 -6.7186846e-21)
(0.85671779 0.043699275 3.5313798e-21)
(0.85671779 0.043699275 -3.721989e-21)
(0.85671779 0.043699275 0)
(0.85671779 0.043699275 -4.1724069e-21)
(0.85671779 0.043699275 4.441129e-21)
(0.85671779 0.043699275 -5.0101273e-21)
(0.85671779 0.043699275 -2.5994988e-21)
(0.85671779 0.043699275 0)
(0.85671779 0.043699275 0)
(0.85671779 0.043699275 2.9309714e-21)
(0.85671779 0.043699275 -3.0610817e-21)
(0.85671779 0.043699275 0)
(0.85671779 0.043699275 6.7186664e-21)
(0.85671779 0.043699275 0)
(0.85671779 0.043699275 3.7219778e-21)
(0.85671779 0.043699275 0)
(0.85671779 0.043699275 8.3447857e-21)
(0.85671779 0.043699275 4.4411131e-21)
(0.85671779 0.043699275 2.5050586e-21)
(0.85671779 0.043699275 2.5994933e-21)
(0.85671779 0.043699275 0)
(0.85671779 0.043699275 0)
(0.85671779 0.043699275 0)
(0.85671779 0.043699275 9.372994e-34)
(0.85671779 0.043699275 3.2032718e-21)
(0.85671779 0.043699275 -3.227595e-33)
(0.85671779 0.043699275 0)
(0.85671779 0.043699275 0)
(0.85671779 0.043699275 0)
(0.85671779 0.043699275 2.1864319e-34)
(0.85671779 0.043699275 -4.4410972e-21)
(0.85671779 0.043699275 0)
(0.85671779 0.043699275 0)
(0.85671779 0.043699275 0)
(0.85671779 0.043699275 0)
(0.85671779 0.043699275 -2.9309575e-21)
(0.85671779 0.043699275 -4.217497e-33)
(0.85671779 0.043699275 -6.4065271e-21)
(0.85671779 0.043699275 2.413044e-33)
(0.85671779 0.043699275 -3.5313496e-21)
(0.85671779 0.043699275 0)
(0.85671779 0.043699275 0)
(0.85671779 0.043699275 -4.1723648e-21)
(0.85671779 0.043699275 0)
(0.85671779 0.043699275 0)
(0.85671779 0.043699275 2.5994825e-21)
(0.85671779 0.043699275 0)
(0.85671779 0.043699275 0)
(0.85671779 0.043699275 2.9309506e-21)
(0.85671779 0.043699275 3.0610589e-21)
(0.85671779 0.043699275 3.2032551e-21)
(0.85671779 0.043699275 3.240258e-33)
(0.85671779 0.043699275 3.5313397e-21)
(0.85671779 0.043699275 3.7219443e-21)
(0.85671779 0.043699275 0)
(0.85671779 0.043699275 4.1723507e-21)
(0.85671779 0.043699275 0)
(0.85671779 0.043699275 0)
(0.85671779 0.043699275 -2.599477e-21)
(0.85671779 0.043699275 0)
(0.85671779 0.043699275 0)
(0.85671779 0.043699275 0)
(0.85671779 0.043699275 0)
(0.85671779 0.043699275 0)
(0.85671779 0.043699275 -3.3592969e-21)
(0.85671779 0.043699275 0)
(0.85671779 0.043699275 -3.7219332e-21)
(0.85671779 0.043699275 3.9342863e-21)
(0.85671779 0.043699275 -1.2136428e-34)
(0.85671779 0.043699275 0)
(0.85671779 0.043699275 2.5050384e-21)
(0.85671779 0.043699275 -2.5994715e-21)
(0.85671779 0.043699275 0)
(0.85671779 0.043699275 0)
(0.85671779 0.043699275 0)
(0.85671779 0.043699275 3.0610439e-21)
(0.85671779 0.043699275 0)
(0.85671779 0.043699275 0)
(0.85671779 0.043699275 3.5313195e-21)
(0.85671779 0.043699275 0)
(0.85671779 0.043699275 -7.8685475e-21)
(0.85671779 0.043699275 -1.422088e-33)
(0.85671779 0.043699275 0)
(0.85671779 0.043699275 -2.5050333e-21)
(0.85671779 0.043699275 2.5994661e-21)
(0.85671779 0.043699275 0)
(0.85671779 0.043699275 0)
(0.85671779 0.043699275 0)
(0.85671779 0.043699275 -3.0610363e-21)