/*--------------------------------*- C++ -*----------------------------------*\
| =========                 |                                                 |
| \\      /  F ield         | OpenFOAM: The Open Source CFD Toolbox           |
|  \\    /   O peration     | Version:  2206                                  |
|   \\  /    A nd           | Website:  www.openfoam.com                      |
|    \\/     M anipulation  |                                                 |
\*---------------------------------------------------------------------------*/
FoamFile
{
    version     2.0;
    format      ascii;
    arch        "LSB;label=32;scalar=64";
    class       volScalarField;
    location    "0.01";
    object      alphat;
}
// * * * * * * * * * * * * * * * * * * * * * * * * * * * * * * * * * * * * * //

dimensions      [1 -1 -1 0 0 0 0];

internalField   nonuniform List<scalar> 
1396
(
2.7772295e-08
2.7772295e-08
2.7772295e-08
2.7772295e-08
2.7772295e-08
2.7772295e-08
2.7772295e-08
2.7772295e-08
2.7772295e-08
2.7772295e-08
2.7772294e-08
2.7772294e-08
2.7772292e-08
2.7772287e-08
2.7772295e-08
2.7772295e-08
2.7772295e-08
2.7772295e-08
2.7772295e-08
2.7772295e-08
2.7772295e-08
2.7772295e-08
2.7772295e-08
2.7772295e-08
2.7772294e-08
2.7772294e-08
2.7772292e-08
2.7772287e-08
2.7772295e-08
2.7772295e-08
2.7772295e-08
2.7772295e-08
2.7772295e-08
2.7772295e-08
2.7772295e-08
2.7772295e-08
2.7772295e-08
2.7772295e-08
2.7772294e-08
2.7772294e-08
2.7772292e-08
2.7772287e-08
2.7772295e-08
2.7772295e-08
2.7772295e-08
2.7772295e-08
2.7772295e-08
2.7772295e-08
2.7772295e-08
2.7772295e-08
2.7772295e-08
2.7772295e-08
2.7772294e-08
2.7772294e-08
2.7772292e-08
2.7772288e-08
2.7772295e-08
2.7772295e-08
2.7772295e-08
2.7772295e-08
2.7772295e-08
2.7772295e-08
2.7772295e-08
2.7772295e-08
2.7772295e-08
2.7772295e-08
2.7772294e-08
2.7772294e-08
2.7772292e-08
2.7772288e-08
2.7772295e-08
2.7772295e-08
2.7772295e-08
2.7772295e-08
2.7772295e-08
2.7772295e-08
2.7772295e-08
2.7772295e-08
2.7772295e-08
2.7772295e-08
2.7772294e-08
2.7772294e-08
2.7772292e-08
2.7772288e-08
2.7772295e-08
2.7772295e-08
2.7772295e-08
2.7772295e-08
2.7772295e-08
2.7772295e-08
2.7772295e-08
2.7772295e-08
2.7772295e-08
2.7772295e-08
2.7772294e-08
2.7772294e-08
2.7772292e-08
2.7772288e-08
2.7772295e-08
2.7772295e-08
2.7772295e-08
2.7772295e-08
2.7772295e-08
2.7772295e-08
2.7772295e-08
2.7772295e-08
2.7772295e-08
2.7772295e-08
2.7772294e-08
2.7772294e-08
2.7772292e-08
2.7772288e-08
2.7772295e-08
2.7772295e-08
2.7772295e-08
2.7772295e-08
2.7772295e-08
2.7772295e-08
2.7772295e-08
2.7772295e-08
2.7772295e-08
2.7772295e-08
2.7772294e-08
2.7772294e-08
2.7772292e-08
2.7772288e-08
2.7772295e-08
2.7772295e-08
2.7772295e-08
2.7772295e-08
2.7772295e-08
2.7772295e-08
2.7772295e-08
2.7772295e-08
2.7772295e-08
2.7772295e-08
2.7772294e-08
2.7772294e-08
2.7772292e-08
2.7772288e-08
2.7772295e-08
2.7772295e-08
2.7772295e-08
2.7772295e-08
2.7772295e-08
2.7772295e-08
2.7772295e-08
2.7772295e-08
2.7772295e-08
2.7772295e-08
2.7772294e-08
2.7772294e-08
2.7772292e-08
2.7772288e-08
2.7772295e-08
2.7772295e-08
2.7772295e-08
2.7772295e-08
2.7772295e-08
2.7772295e-08
2.7772295e-08
2.7772295e-08
2.7772295e-08
2.7772295e-08
2.7772294e-08
2.7772294e-08
2.7772292e-08
2.7772288e-08
2.7772295e-08
2.7772295e-08
2.7772295e-08
2.7772295e-08
2.7772295e-08
2.7772295e-08
2.7772295e-08
2.7772295e-08
2.7772295e-08
2.7772295e-08
2.7772294e-08
2.7772294e-08
2.7772292e-08
2.7772287e-08
2.7772295e-08
2.7772295e-08
2.7772295e-08
2.7772295e-08
2.7772295e-08
2.7772295e-08
2.7772295e-08
2.7772295e-08
2.7772295e-08
2.7772295e-08
2.7772294e-08
2.7772294e-08
2.7772292e-08
2.7772287e-08
2.7772295e-08
2.7772295e-08
2.7772295e-08
2.7772295e-08
2.7772295e-08
2.7772295e-08
2.7772295e-08
2.7772295e-08
2.7772295e-08
2.7772295e-08
2.7772294e-08
2.7772294e-08
2.7772292e-08
2.7772286e-08
2.7772295e-08
2.7772295e-08
2.7772295e-08
2.7772295e-08
2.7772295e-08
2.7772295e-08
2.7772295e-08
2.7772295e-08
2.7772295e-08
2.7772295e-08
2.7772294e-08
2.7772294e-08
2.7772292e-08
2.7772286e-08
2.7772295e-08
2.7772295e-08
2.7772295e-08
2.7772295e-08
2.7772295e-08
2.7772295e-08
2.7772295e-08
2.7772295e-08
2.7772295e-08
2.7772295e-08
2.7772294e-08
2.7772294e-08
2.7772292e-08
2.7772286e-08
2.7772295e-08
2.7772295e-08
2.7772295e-08
2.7772295e-08
2.7772295e-08
2.7772295e-08
2.7772295e-08
2.7772295e-08
2.7772295e-08
2.7772295e-08
2.7772294e-08
2.7772294e-08
2.7772292e-08
2.7772285e-08
2.7772295e-08
2.7772295e-08
2.7772295e-08
2.7772295e-08
2.7772295e-08
2.7772295e-08
2.7772295e-08
2.7772295e-08
2.7772295e-08
2.7772295e-08
2.7772294e-08
2.7772294e-08
2.7772292e-08
2.7772285e-08
2.7772295e-08
2.7772295e-08
2.7772295e-08
2.7772295e-08
2.7772295e-08
2.7772295e-08
2.7772295e-08
2.7772295e-08
2.7772295e-08
2.7772295e-08
2.7772294e-08
2.7772293e-08
2.7772292e-08
2.7772285e-08
2.7772295e-08
2.7772295e-08
2.7772295e-08
2.7772295e-08
2.7772295e-08
2.7772295e-08
2.7772295e-08
2.7772295e-08
2.7772295e-08
2.7772295e-08
2.7772294e-08
2.7772293e-08
2.7772292e-08
2.7772285e-08
2.7772295e-08
2.7772295e-08
2.7772295e-08
2.7772295e-08
2.7772295e-08
2.7772295e-08
2.7772295e-08
2.7772295e-08
2.7772295e-08
2.7772295e-08
2.7772294e-08
2.7772293e-08
2.7772292e-08
2.7772285e-08
2.7772295e-08
2.7772295e-08
2.7772295e-08
2.7772295e-08
2.7772295e-08
2.7772295e-08
2.7772295e-08
2.7772295e-08
2.7772295e-08
2.7772295e-08
2.7772294e-08
2.7772293e-08
2.7772291e-08
2.7772284e-08
2.7772295e-08
2.7772295e-08
2.7772295e-08
2.7772295e-08
2.7772295e-08
2.7772295e-08
2.7772295e-08
2.7772295e-08
2.7772295e-08
2.7772295e-08
2.7772294e-08
2.7772293e-08
2.7772291e-08
2.7772284e-08
2.7772295e-08
2.7772295e-08
2.7772295e-08
2.7772295e-08
2.7772295e-08
2.7772295e-08
2.7772295e-08
2.7772295e-08
2.7772295e-08
2.7772295e-08
2.7772294e-08
2.7772293e-08
2.7772291e-08
2.7772284e-08
2.7772295e-08
2.7772295e-08
2.7772295e-08
2.7772295e-08
2.7772295e-08
2.7772295e-08
2.7772295e-08
2.7772295e-08
2.7772295e-08
2.7772295e-08
2.7772294e-08
2.7772293e-08
2.7772291e-08
2.7772284e-08
2.7772295e-08
2.7772295e-08
2.7772295e-08
2.7772295e-08
2.7772295e-08
2.7772295e-08
2.7772295e-08
2.7772295e-08
2.7772295e-08
2.7772295e-08
2.7772294e-08
2.7772293e-08
2.7772291e-08
2.7772284e-08
2.7772295e-08
2.7772295e-08
2.7772295e-08
2.7772295e-08
2.7772295e-08
2.7772295e-08
2.7772295e-08
2.7772295e-08
2.7772295e-08
2.7772295e-08
2.7772294e-08
2.7772293e-08
2.7772291e-08
2.7772284e-08
2.7772295e-08
2.7772295e-08
2.7772295e-08
2.7772295e-08
2.7772295e-08
2.7772295e-08
2.7772295e-08
2.7772295e-08
2.7772295e-08
2.7772295e-08
2.7772294e-08
2.7772293e-08
2.7772291e-08
2.7772284e-08
2.7772295e-08
2.7772295e-08
2.7772295e-08
2.7772295e-08
2.7772295e-08
2.7772295e-08
2.7772295e-08
2.7772295e-08
2.7772295e-08
2.7772295e-08
2.7772294e-08
2.7772293e-08
2.7772291e-08
2.7772283e-08
2.7772295e-08
2.7772295e-08
2.7772295e-08
2.7772295e-08
2.7772295e-08
2.7772295e-08
2.7772295e-08
2.7772295e-08
2.7772295e-08
2.7772295e-08
2.7772294e-08
2.7772293e-08
2.7772291e-08
2.7772283e-08
2.7772295e-08
2.7772295e-08
2.7772295e-08
2.7772294e-08
2.7772293e-08
2.7772291e-08
2.7772283e-08
2.7772295e-08
2.7772295e-08
2.7772295e-08
2.7772295e-08
2.7772295e-08
2.7772295e-08
2.7772295e-08
2.7772295e-08
2.7772295e-08
2.7772295e-08
2.7772295e-08
2.7772295e-08
2.7772295e-08
2.7772295e-08
2.7772295e-08
2.7772295e-08
2.7772295e-08
2.7772295e-08
2.7772295e-08
2.7772295e-08
2.7772295e-08
2.7772295e-08
2.7772295e-08
2.7772295e-08
2.7772295e-08
2.7772295e-08
2.7772295e-08
2.7772295e-08
2.7772295e-08
2.7772295e-08
2.7772295e-08
2.7772295e-08
2.7772295e-08
2.7772295e-08
2.7772295e-08
2.7772295e-08
2.7772295e-08
2.7772295e-08
2.7772295e-08
2.7772295e-08
2.7772295e-08
2.7772295e-08
2.7772295e-08
2.7772295e-08
2.7772295e-08
2.7772295e-08
2.7772295e-08
2.7772295e-08
2.7772295e-08
2.7772295e-08
2.7772295e-08
2.7772295e-08
2.7772295e-08
2.7772295e-08
2.7772295e-08
2.7772295e-08
2.7772295e-08
2.7772295e-08
2.7772295e-08
2.7772295e-08
2.7772295e-08
2.7772295e-08
2.7772295e-08
2.7772295e-08
2.7772295e-08
2.7772295e-08
2.7772295e-08
2.7772295e-08
2.7772295e-08
2.7772295e-08
2.7772295e-08
2.7772295e-08
2.7772295e-08
2.7772295e-08
2.7772295e-08
2.7772295e-08
2.7772295e-08
2.7772295e-08
2.7772295e-08
2.7772295e-08
2.7772295e-08
2.7772295e-08
2.7772295e-08
2.7772295e-08
2.7772295e-08
2.7772295e-08
2.7772295e-08
2.7772295e-08
2.7772295e-08
2.7772295e-08
2.7772295e-08
2.7772295e-08
2.7772295e-08
2.7772295e-08
2.7772295e-08
2.7772295e-08
2.7772295e-08
2.7772295e-08
2.7772295e-08
2.7772295e-08
2.7772295e-08
2.7772295e-08
2.7772295e-08
2.7772295e-08
2.7772295e-08
2.7772295e-08
2.7772295e-08
2.7772295e-08
2.7772295e-08
2.7772295e-08
2.7772295e-08
2.7772295e-08
2.7772295e-08
2.7772295e-08
2.7772295e-08
2.7772295e-08
2.7772295e-08
2.7772295e-08
2.7772295e-08
2.7772295e-08
2.7772295e-08
2.7772295e-08
2.7772295e-08
2.7772295e-08
2.7772295e-08
2.7772295e-08
2.7772295e-08
2.7772295e-08
2.7772295e-08
2.7772295e-08
2.7772295e-08
2.7772295e-08
2.7772295e-08
2.7772295e-08
2.7772295e-08
2.7772295e-08
2.7772295e-08
2.7772295e-08
2.7772295e-08
2.7772295e-08
2.7772294e-08
2.7772294e-08
2.7772294e-08
2.7772294e-08
2.7772294e-08
2.7772294e-08
2.7772294e-08
2.7772294e-08
2.7772294e-08
2.7772294e-08
2.7772294e-08
2.7772294e-08
2.7772294e-08
2.7772294e-08
2.7772294e-08
2.7772294e-08
2.7772294e-08
2.7772294e-08
2.7772294e-08
2.7772294e-08
2.7772294e-08
2.7772293e-08
2.7772293e-08
2.7772293e-08
2.7772293e-08
2.7772293e-08
2.7772293e-08
2.7772293e-08
2.7772292e-08
2.7772292e-08
2.7772292e-08
2.7772292e-08
2.7772292e-08
2.7772292e-08
2.7772292e-08
2.7772292e-08
2.7772292e-08
2.7772292e-08
2.7772292e-08
2.7772292e-08
2.7772291e-08
2.7772291e-08
2.7772287e-08
2.7772286e-08
2.7772286e-08
2.7772286e-08
2.7772286e-08
2.7772285e-08
2.7772285e-08
2.7772285e-08
2.7772285e-08
2.7772285e-08
2.7772285e-08
2.7772285e-08
2.7772284e-08
2.7772284e-08
2.7772283e-08
2.7772283e-08
2.7772284e-08
2.7772284e-08
2.7772291e-08
2.7772291e-08
2.7772291e-08
2.7772291e-08
2.7772293e-08
2.7772293e-08
2.7772293e-08
2.7772293e-08
2.7772294e-08
2.7772294e-08
2.7772294e-08
2.7772294e-08
2.7772295e-08
2.7772295e-08
2.7772295e-08
2.7772295e-08
2.7772295e-08
2.7772295e-08
2.7772295e-08
2.7772295e-08
2.7772295e-08
2.7772295e-08
2.7772295e-08
2.7772295e-08
2.7772295e-08
2.7772295e-08
2.7772295e-08
2.7772295e-08
2.7772295e-08
2.7772295e-08
2.7772295e-08
2.7772295e-08
2.7772295e-08
2.7772295e-08
2.7772295e-08
2.7772295e-08
2.7772295e-08
2.7772295e-08
2.7772295e-08
2.7772295e-08
2.7772295e-08
2.7772295e-08
2.7772295e-08
2.7772295e-08
2.7772295e-08
2.7772295e-08
2.7772295e-08
2.7772295e-08
2.7772295e-08
2.7772295e-08
2.7772295e-08
2.7772295e-08
2.7772268e-08
2.7772263e-08
2.7772257e-08
2.7772249e-08
2.7772239e-08
2.7772225e-08
2.7772205e-08
2.7772175e-08
2.7772128e-08
2.7772046e-08
2.7771966e-08
2.7784624e-08
2.7798651e-08
3.5773485e-08
2.7772266e-08
2.7772262e-08
2.7772255e-08
2.7772247e-08
2.7772237e-08
2.7772222e-08
2.7772201e-08
2.777217e-08
2.7772121e-08
2.7772036e-08
2.7771958e-08
2.7784265e-08
2.7801226e-08
3.5406356e-08
2.7772265e-08
2.777226e-08
2.7772254e-08
2.7772245e-08
2.7772234e-08
2.7772219e-08
2.7772198e-08
2.7772165e-08
2.7772114e-08
2.7772026e-08
2.7771948e-08
2.778348e-08
2.7802461e-08
3.493947e-08
2.7772264e-08
2.7772259e-08
2.7772252e-08
2.7772244e-08
2.7772232e-08
2.7772216e-08
2.7772194e-08
2.777216e-08
2.7772107e-08
2.7772015e-08
2.7771935e-08
2.778249e-08
2.7801254e-08
3.4500991e-08
2.7781487e-08
2.7797395e-08
3.4073059e-08
3.593678e-08
3.6209928e-08
3.6449139e-08
3.6702914e-08
3.6977078e-08
3.7278549e-08
3.7597067e-08
3.7897119e-08
3.8205687e-08
3.8566942e-08
3.9010818e-08
3.9546514e-08
4.0176581e-08
4.075731e-08
2.778612e-08
2.7787189e-08
2.7785056e-08
2.7782478e-08
2.7779173e-08
2.7774806e-08
2.776924e-08
2.7763218e-08
2.7756411e-08
2.7747838e-08
2.7736295e-08
2.7720567e-08
2.7697979e-08
2.765982e-08
2.7783861e-08
2.7784592e-08
2.7785191e-08
2.778579e-08
2.7786401e-08
2.7787009e-08
2.7787549e-08
2.7787999e-08
2.7788435e-08
2.778895e-08
2.7789561e-08
2.7790242e-08
2.7790808e-08
2.7790218e-08
2.7771956e-08
2.777196e-08
2.7771962e-08
2.7771965e-08
2.7771968e-08
2.7771971e-08
2.7771973e-08
2.7771971e-08
2.7771973e-08
2.7771974e-08
2.7771973e-08
2.7771969e-08
2.7771958e-08
2.7771937e-08
2.7772054e-08
2.7772055e-08
2.7772057e-08
2.777206e-08
2.7772064e-08
2.7772069e-08
2.7772074e-08
2.7772076e-08
2.7772082e-08
2.7772087e-08
2.7772094e-08
2.7772101e-08
2.7772108e-08
2.7772115e-08
2.7772132e-08
2.7772133e-08
2.7772134e-08
2.7772137e-08
2.7772139e-08
2.7772142e-08
2.7772145e-08
2.7772147e-08
2.7772151e-08
2.7772155e-08
2.7772159e-08
2.7772164e-08
2.7772169e-08
2.7772174e-08
2.7772178e-08
2.7772179e-08
2.777218e-08
2.7772181e-08
2.7772183e-08
2.7772185e-08
2.7772188e-08
2.7772189e-08
2.7772192e-08
2.7772195e-08
2.7772198e-08
2.7772201e-08
2.7772205e-08
2.7772208e-08
2.7772207e-08
2.7772208e-08
2.7772209e-08
2.777221e-08
2.7772211e-08
2.7772213e-08
2.7772214e-08
2.7772216e-08
2.7772218e-08
2.777222e-08
2.7772222e-08
2.7772225e-08
2.7772227e-08
2.777223e-08
2.7772227e-08
2.7772227e-08
2.7772228e-08
2.7772229e-08
2.777223e-08
2.7772231e-08
2.7772232e-08
2.7772233e-08
2.7772235e-08
2.7772237e-08
2.7772238e-08
2.777224e-08
2.7772242e-08
2.7772245e-08
2.777224e-08
2.7772241e-08
2.7772241e-08
2.7772242e-08
2.7772243e-08
2.7772244e-08
2.7772245e-08
2.7772246e-08
2.7772247e-08
2.7772248e-08
2.777225e-08
2.7772251e-08
2.7772253e-08
2.7772255e-08
2.777225e-08
2.7772251e-08
2.7772251e-08
2.7772252e-08
2.7772252e-08
2.7772253e-08
2.7772254e-08
2.7772255e-08
2.7772256e-08
2.7772257e-08
2.7772258e-08
2.7772259e-08
2.7772261e-08
2.7772262e-08
2.7772258e-08
2.7772258e-08
2.7772258e-08
2.7772259e-08
2.7772259e-08
2.777226e-08
2.7772261e-08
2.7772262e-08
2.7772262e-08
2.7772263e-08
2.7772264e-08
2.7772265e-08
2.7772267e-08
2.7772268e-08
2.7772264e-08
2.7772264e-08
2.7772264e-08
2.7772265e-08
2.7772265e-08
2.7772266e-08
2.7772266e-08
2.7772267e-08
2.7772268e-08
2.7772268e-08
2.7772269e-08
2.777227e-08
2.7772271e-08
2.7772272e-08
2.7772268e-08
2.7772268e-08
2.7772269e-08
2.7772269e-08
2.7772269e-08
2.777227e-08
2.777227e-08
2.7772271e-08
2.7772272e-08
2.7772272e-08
2.7772273e-08
2.7772274e-08
2.7772274e-08
2.7772275e-08
2.7772275e-08
2.7772276e-08
2.7772277e-08
2.7772278e-08
2.7772278e-08
2.7772278e-08
2.7772279e-08
2.7772279e-08
2.7772278e-08
2.7772278e-08
2.7772278e-08
2.7772277e-08
2.7772277e-08
2.7772276e-08
2.7772272e-08
2.7772273e-08
2.7772274e-08
2.7772275e-08
2.7772275e-08
2.7772276e-08
2.7772276e-08
2.7772276e-08
2.7772276e-08
2.7772275e-08
2.7772275e-08
2.7772274e-08
2.7772274e-08
2.7772273e-08
2.7772267e-08
2.7772269e-08
2.777227e-08
2.7772271e-08
2.7772272e-08
2.7772272e-08
2.7772272e-08
2.7772272e-08
2.7772272e-08
2.7772272e-08
2.7772271e-08
2.7772271e-08
2.777227e-08
2.7772269e-08
2.7772262e-08
2.7772263e-08
2.7772265e-08
2.7772266e-08
2.7772267e-08
2.7772268e-08
2.7772268e-08
2.7772268e-08
2.7772268e-08
2.7772267e-08
2.7772266e-08
2.7772266e-08
2.7772264e-08
2.7772264e-08
2.7772254e-08
2.7772256e-08
2.7772258e-08
2.7772259e-08
2.7772261e-08
2.7772261e-08
2.7772262e-08
2.7772262e-08
2.7772262e-08
2.7772261e-08
2.777226e-08
2.7772259e-08
2.7772258e-08
2.7772256e-08
2.7772244e-08
2.7772247e-08
2.7772249e-08
2.7772251e-08
2.7772252e-08
2.7772253e-08
2.7772253e-08
2.7772253e-08
2.7772253e-08
2.7772252e-08
2.7772251e-08
2.777225e-08
2.7772248e-08
2.7772247e-08
2.7772229e-08
2.7772233e-08
2.7772235e-08
2.7772238e-08
2.777224e-08
2.7772241e-08
2.7772242e-08
2.7772242e-08
2.7772241e-08
2.777224e-08
2.7772239e-08
2.7772237e-08
2.7772234e-08
2.7772233e-08
2.7772208e-08
2.7772212e-08
2.7772216e-08
2.7772219e-08
2.7772223e-08
2.7772224e-08
2.7772225e-08
2.7772225e-08
2.7772224e-08
2.7772222e-08
2.777222e-08
2.7772218e-08
2.7772214e-08
2.7772212e-08
2.7772173e-08
2.7772178e-08
2.7772184e-08
2.7772189e-08
2.7772194e-08
2.7772195e-08
2.7772196e-08
2.7772196e-08
2.7772195e-08
2.7772193e-08
2.777219e-08
2.7772187e-08
2.7772182e-08
2.7772179e-08
2.7772113e-08
2.7772123e-08
2.7772136e-08
2.7772157e-08
2.7772184e-08
2.7772207e-08
2.7772222e-08
2.7772227e-08
2.7772215e-08
2.7772185e-08
2.7772158e-08
2.7772142e-08
2.7772131e-08
2.7772123e-08
2.7771943e-08
2.7771856e-08
2.7771637e-08
2.7771099e-08
2.7770368e-08
2.7769692e-08
2.7769252e-08
2.776907e-08
2.7769449e-08
2.7770334e-08
2.7771108e-08
2.7771551e-08
2.7771773e-08
2.7771885e-08
2.7782197e-08
2.7786268e-08
2.7795115e-08
2.7814181e-08
2.7835726e-08
2.7853172e-08
2.7864079e-08
2.7868781e-08
2.7859009e-08
2.7834958e-08
2.78117e-08
2.7797325e-08
2.7789681e-08
2.778541e-08
2.7711516e-08
2.7613061e-08
2.7407842e-08
2.6982213e-08
2.6572544e-08
2.6288305e-08
2.6106144e-08
2.6034132e-08
2.6191463e-08
2.6582445e-08
2.702365e-08
2.7323132e-08
2.7497902e-08
2.7604114e-08
3.7751606e-08
4.0144735e-08
4.3894175e-08
5.0254454e-08
5.5549128e-08
5.9051619e-08
6.1020943e-08
6.1580511e-08
5.9657447e-08
5.476774e-08
4.9146063e-08
4.4839415e-08
4.2074701e-08
4.005694e-08
2.7772274e-08
2.7772271e-08
2.7772266e-08
2.777226e-08
2.7772252e-08
2.7772241e-08
2.7772226e-08
2.7772203e-08
2.7772166e-08
2.7772103e-08
2.7772003e-08
2.7785699e-08
2.7767877e-08
3.7533838e-08
2.7772273e-08
2.777227e-08
2.7772265e-08
2.7772259e-08
2.777225e-08
2.7772239e-08
2.7772223e-08
2.7772199e-08
2.777216e-08
2.7772095e-08
2.777202e-08
2.7785219e-08
2.7790148e-08
3.6700973e-08
2.7772272e-08
2.7772269e-08
2.7772264e-08
2.7772257e-08
2.7772249e-08
2.7772237e-08
2.777222e-08
2.7772195e-08
2.7772155e-08
2.7772087e-08
2.7772018e-08
2.77839e-08
2.7798146e-08
3.6036857e-08
2.7772272e-08
2.7772268e-08
2.7772262e-08
2.7772256e-08
2.7772247e-08
2.7772235e-08
2.7772218e-08
2.7772192e-08
2.777215e-08
2.7772079e-08
2.7772008e-08
2.7782762e-08
2.7800783e-08
3.5517954e-08
2.7772271e-08
2.7772267e-08
2.7772261e-08
2.7772255e-08
2.7772245e-08
2.7772233e-08
2.7772215e-08
2.7772188e-08
2.7772145e-08
2.7772073e-08
2.7771998e-08
2.77818e-08
2.7801431e-08
3.5095612e-08
2.777227e-08
2.7772266e-08
2.777226e-08
2.7772253e-08
2.7772244e-08
2.7772231e-08
2.7772213e-08
2.7772185e-08
2.7772141e-08
2.7772066e-08
2.7771987e-08
2.7780905e-08
2.7800973e-08
3.4717833e-08
2.777227e-08
2.7772265e-08
2.7772259e-08
2.7772252e-08
2.7772243e-08
2.7772229e-08
2.7772211e-08
2.7772182e-08
2.7772137e-08
2.7772061e-08
2.7771976e-08
2.7780065e-08
2.7799715e-08
3.4403369e-08
2.7772269e-08
2.7772264e-08
2.7772259e-08
2.7772252e-08
2.7772242e-08
2.7772228e-08
2.7772209e-08
2.777218e-08
2.7772134e-08
2.7772055e-08
2.7771966e-08
2.7779256e-08
2.779803e-08
3.4095166e-08
2.7772268e-08
2.7772264e-08
2.7772258e-08
2.7772251e-08
2.7772241e-08
2.7772227e-08
2.7772207e-08
2.7772178e-08
2.7772132e-08
2.7772053e-08
2.7771957e-08
2.7778442e-08
2.7795754e-08
3.3822404e-08
2.7772268e-08
2.7772263e-08
2.7772257e-08
2.777225e-08
2.777224e-08
2.7772226e-08
2.7772206e-08
2.7772176e-08
2.7772129e-08
2.7772048e-08
2.7771944e-08
2.777767e-08
2.779308e-08
3.3566476e-08
2.7772267e-08
2.7772263e-08
2.7772257e-08
2.7772249e-08
2.7772239e-08
2.7772224e-08
2.7772204e-08
2.7772174e-08
2.7772126e-08
2.7772043e-08
2.7771933e-08
2.7776948e-08
2.7790007e-08
3.3324512e-08
2.7772267e-08
2.7772262e-08
2.7772256e-08
2.7772248e-08
2.7772238e-08
2.7772223e-08
2.7772203e-08
2.7772172e-08
2.7772123e-08
2.777204e-08
2.7771921e-08
2.7776343e-08
2.7786565e-08
3.3096381e-08
2.7772267e-08
2.7772262e-08
2.7772256e-08
2.7772248e-08
2.7772237e-08
2.7772223e-08
2.7772202e-08
2.7772171e-08
2.7772121e-08
2.7772037e-08
2.7771926e-08
2.7776425e-08
2.7781661e-08
3.2880341e-08
2.7772266e-08
2.7772261e-08
2.7772255e-08
2.7772247e-08
2.7772237e-08
2.7772222e-08
2.7772201e-08
2.777217e-08
2.777212e-08
2.7772035e-08
2.7771888e-08
2.7773475e-08
2.7778969e-08
3.2663856e-08
2.7772266e-08
2.7772261e-08
2.7772255e-08
2.7772246e-08
2.7772236e-08
2.7772221e-08
2.7772199e-08
2.7772168e-08
2.7772117e-08
2.7772029e-08
2.7771863e-08
2.777187e-08
2.7777905e-08
3.2479196e-08
2.7772265e-08
2.777226e-08
2.7772254e-08
2.7772245e-08
2.7772234e-08
2.7772219e-08
2.7772197e-08
2.7772164e-08
2.7772112e-08
2.7772022e-08
2.777183e-08
2.7770907e-08
2.7768204e-08
3.2113229e-08
2.7772264e-08
2.7772259e-08
2.7772253e-08
2.7772244e-08
2.7772233e-08
2.7772217e-08
2.7772195e-08
2.7772161e-08
2.7772108e-08
2.7772015e-08
2.7771788e-08
2.7769471e-08
2.775934e-08
3.1751848e-08
2.7772264e-08
2.7772258e-08
2.7772252e-08
2.7772243e-08
2.7772231e-08
2.7772215e-08
2.7772192e-08
2.7772158e-08
2.7772103e-08
2.7772007e-08
2.7771734e-08
2.7767824e-08
2.7750807e-08
3.1408843e-08
)
;

boundaryField
{
    Side
    {
        type            empty;
    }
    Inlet
    {
        type            calculated;
        value           nonuniform List<scalar> 
49
(
3.9592188e-07
3.9592188e-07
3.9592188e-07
3.9592188e-07
3.9592188e-07
3.9592188e-07
3.9592188e-07
3.9592188e-07
3.9592188e-07
3.9592188e-07
3.9592188e-07
3.9592188e-07
3.9592188e-07
3.9592188e-07
2.7772295e-08
2.7772295e-08
2.7772295e-08
2.7772295e-08
2.7772295e-08
2.7772295e-08
2.7772295e-08
2.7772295e-08
2.7772295e-08
2.7772295e-08
2.7772295e-08
2.7772295e-08
2.7772295e-08
2.7772295e-08
2.7772295e-08
2.7772295e-08
2.7772295e-08
3.9592188e-07
3.9592188e-07
3.9592188e-07
3.9592188e-07
3.9592188e-07
3.9592188e-07
3.9592188e-07
3.9592188e-07
3.9592188e-07
3.9592188e-07
3.9592188e-07
3.9592188e-07
3.9592188e-07
3.9592188e-07
3.9592188e-07
3.9592188e-07
3.9592188e-07
3.9592188e-07
)
;
    }
    Airfoil
    {
        type            compressible::alphatWallFunction;
        value           nonuniform List<scalar> 
51
(
1.9041926e-05
1.8639174e-05
1.8246691e-05
1.7876699e-05
1.7530627e-05
1.9434754e-05
1.9557729e-05
1.9692288e-05
1.9844009e-05
2.0014952e-05
2.0206721e-05
2.0418243e-05
2.0646249e-05
2.0899316e-05
2.1190145e-05
2.1529321e-05
2.1920672e-05
2.2356354e-05
2.2818746e-05
2.2888978e-05
2.3403097e-05
2.4186655e-05
2.6023257e-05
2.7407107e-05
2.8212916e-05
2.8598252e-05
2.8734138e-05
2.8165398e-05
2.6464898e-05
2.4906537e-05
2.4229783e-05
2.4026997e-05
2.3784904e-05
2.1681024e-05
2.1114371e-05
2.0651826e-05
2.0265585e-05
1.9939918e-05
1.9654636e-05
1.9407483e-05
1.9182772e-05
1.8982582e-05
1.8801941e-05
1.8638708e-05
1.8490881e-05
1.8357298e-05
1.823794e-05
1.7920343e-05
1.7644448e-05
1.738834e-05
1.7151257e-05
)
;
    }
    Outlet
    {
        type            zeroGradient;
    }
    Flap
    {
        type            compressible::alphatWallFunction;
        value           nonuniform List<scalar> 0();
    }
    procBoundary0to1
    {
        type            processor;
        value           nonuniform List<scalar> 
58
(
2.7772295e-08
2.7772295e-08
2.7772295e-08
2.7772295e-08
2.7772295e-08
2.7772295e-08
2.7772295e-08
2.7772295e-08
2.7772295e-08
2.7772295e-08
2.7772295e-08
2.7772294e-08
2.7772293e-08
2.7772291e-08
2.7772283e-08
2.7772283e-08
2.7772291e-08
2.7772293e-08
2.7772294e-08
2.7772295e-08
2.7772295e-08
2.7772295e-08
2.7772295e-08
2.7772295e-08
2.7772295e-08
2.7772295e-08
2.7772295e-08
2.7772295e-08
2.7772295e-08
2.7772263e-08
2.7772258e-08
2.7772251e-08
2.7772242e-08
2.777223e-08
2.7772214e-08
2.7772191e-08
2.7772156e-08
2.7772101e-08
2.7772006e-08
2.7771928e-08
2.7771928e-08
2.778216e-08
2.7787854e-08
3.3561961e-08
2.7772263e-08
2.7772258e-08
2.7772251e-08
2.7772242e-08
2.777223e-08
2.7772214e-08
2.7772191e-08
2.7772156e-08
2.77721e-08
2.7772002e-08
2.7771673e-08
2.7766048e-08
2.7742232e-08
3.1053472e-08
)
;
    }
}


// ************************************************************************* //
