/*--------------------------------*- C++ -*----------------------------------*\
| =========                 |                                                 |
| \\      /  F ield         | OpenFOAM: The Open Source CFD Toolbox           |
|  \\    /   O peration     | Version:  2206                                  |
|   \\  /    A nd           | Website:  www.openfoam.com                      |
|    \\/     M anipulation  |                                                 |
\*---------------------------------------------------------------------------*/
FoamFile
{
    version     2.0;
    format      ascii;
    arch        "LSB;label=32;scalar=64";
    class       volScalarField;
    location    "0.01";
    object      nut;
}
// * * * * * * * * * * * * * * * * * * * * * * * * * * * * * * * * * * * * * //

dimensions      [0 2 -1 0 0 0 0];

internalField   nonuniform List<scalar> 
1396
(
2.7772322e-08
2.7772322e-08
2.7772322e-08
2.7772322e-08
2.7772322e-08
2.7772322e-08
2.7772322e-08
2.7772322e-08
2.7772322e-08
2.7772321e-08
2.7772321e-08
2.777232e-08
2.7772319e-08
2.7772313e-08
2.7772322e-08
2.7772322e-08
2.7772322e-08
2.7772322e-08
2.7772322e-08
2.7772322e-08
2.7772322e-08
2.7772322e-08
2.7772322e-08
2.7772321e-08
2.7772321e-08
2.777232e-08
2.7772319e-08
2.7772314e-08
2.7772322e-08
2.7772322e-08
2.7772322e-08
2.7772322e-08
2.7772322e-08
2.7772322e-08
2.7772322e-08
2.7772322e-08
2.7772322e-08
2.7772321e-08
2.7772321e-08
2.777232e-08
2.7772319e-08
2.7772314e-08
2.7772322e-08
2.7772322e-08
2.7772322e-08
2.7772322e-08
2.7772322e-08
2.7772322e-08
2.7772322e-08
2.7772322e-08
2.7772322e-08
2.7772321e-08
2.7772321e-08
2.777232e-08
2.7772319e-08
2.7772314e-08
2.7772322e-08
2.7772322e-08
2.7772322e-08
2.7772322e-08
2.7772322e-08
2.7772322e-08
2.7772322e-08
2.7772322e-08
2.7772322e-08
2.7772321e-08
2.7772321e-08
2.777232e-08
2.7772319e-08
2.7772314e-08
2.7772322e-08
2.7772322e-08
2.7772322e-08
2.7772322e-08
2.7772322e-08
2.7772322e-08
2.7772322e-08
2.7772322e-08
2.7772322e-08
2.7772321e-08
2.7772321e-08
2.777232e-08
2.7772319e-08
2.7772314e-08
2.7772322e-08
2.7772322e-08
2.7772322e-08
2.7772322e-08
2.7772322e-08
2.7772322e-08
2.7772322e-08
2.7772322e-08
2.7772322e-08
2.7772321e-08
2.7772321e-08
2.777232e-08
2.7772319e-08
2.7772315e-08
2.7772322e-08
2.7772322e-08
2.7772322e-08
2.7772322e-08
2.7772322e-08
2.7772322e-08
2.7772322e-08
2.7772322e-08
2.7772322e-08
2.7772321e-08
2.7772321e-08
2.777232e-08
2.7772319e-08
2.7772315e-08
2.7772322e-08
2.7772322e-08
2.7772322e-08
2.7772322e-08
2.7772322e-08
2.7772322e-08
2.7772322e-08
2.7772322e-08
2.7772322e-08
2.7772321e-08
2.7772321e-08
2.777232e-08
2.7772319e-08
2.7772314e-08
2.7772322e-08
2.7772322e-08
2.7772322e-08
2.7772322e-08
2.7772322e-08
2.7772322e-08
2.7772322e-08
2.7772322e-08
2.7772322e-08
2.7772321e-08
2.7772321e-08
2.777232e-08
2.7772319e-08
2.7772314e-08
2.7772322e-08
2.7772322e-08
2.7772322e-08
2.7772322e-08
2.7772322e-08
2.7772322e-08
2.7772322e-08
2.7772322e-08
2.7772322e-08
2.7772321e-08
2.7772321e-08
2.777232e-08
2.7772319e-08
2.7772314e-08
2.7772322e-08
2.7772322e-08
2.7772322e-08
2.7772322e-08
2.7772322e-08
2.7772322e-08
2.7772322e-08
2.7772322e-08
2.7772322e-08
2.7772321e-08
2.7772321e-08
2.777232e-08
2.7772319e-08
2.7772314e-08
2.7772322e-08
2.7772322e-08
2.7772322e-08
2.7772322e-08
2.7772322e-08
2.7772322e-08
2.7772322e-08
2.7772322e-08
2.7772322e-08
2.7772321e-08
2.7772321e-08
2.777232e-08
2.7772319e-08
2.7772314e-08
2.7772322e-08
2.7772322e-08
2.7772322e-08
2.7772322e-08
2.7772322e-08
2.7772322e-08
2.7772322e-08
2.7772322e-08
2.7772322e-08
2.7772321e-08
2.7772321e-08
2.777232e-08
2.7772319e-08
2.7772314e-08
2.7772322e-08
2.7772322e-08
2.7772322e-08
2.7772322e-08
2.7772322e-08
2.7772322e-08
2.7772322e-08
2.7772322e-08
2.7772322e-08
2.7772321e-08
2.7772321e-08
2.777232e-08
2.7772319e-08
2.7772313e-08
2.7772322e-08
2.7772322e-08
2.7772322e-08
2.7772322e-08
2.7772322e-08
2.7772322e-08
2.7772322e-08
2.7772322e-08
2.7772322e-08
2.7772321e-08
2.7772321e-08
2.777232e-08
2.7772318e-08
2.7772313e-08
2.7772322e-08
2.7772322e-08
2.7772322e-08
2.7772322e-08
2.7772322e-08
2.7772322e-08
2.7772322e-08
2.7772322e-08
2.7772322e-08
2.7772321e-08
2.7772321e-08
2.777232e-08
2.7772318e-08
2.7772312e-08
2.7772322e-08
2.7772322e-08
2.7772322e-08
2.7772322e-08
2.7772322e-08
2.7772322e-08
2.7772322e-08
2.7772322e-08
2.7772322e-08
2.7772321e-08
2.7772321e-08
2.777232e-08
2.7772318e-08
2.7772312e-08
2.7772322e-08
2.7772322e-08
2.7772322e-08
2.7772322e-08
2.7772322e-08
2.7772322e-08
2.7772322e-08
2.7772322e-08
2.7772322e-08
2.7772321e-08
2.7772321e-08
2.777232e-08
2.7772318e-08
2.7772312e-08
2.7772322e-08
2.7772322e-08
2.7772322e-08
2.7772322e-08
2.7772322e-08
2.7772322e-08
2.7772322e-08
2.7772322e-08
2.7772322e-08
2.7772321e-08
2.7772321e-08
2.777232e-08
2.7772318e-08
2.7772312e-08
2.7772322e-08
2.7772322e-08
2.7772322e-08
2.7772322e-08
2.7772322e-08
2.7772322e-08
2.7772322e-08
2.7772322e-08
2.7772322e-08
2.7772321e-08
2.7772321e-08
2.777232e-08
2.7772318e-08
2.7772311e-08
2.7772322e-08
2.7772322e-08
2.7772322e-08
2.7772322e-08
2.7772322e-08
2.7772322e-08
2.7772322e-08
2.7772322e-08
2.7772321e-08
2.7772321e-08
2.7772321e-08
2.777232e-08
2.7772318e-08
2.7772311e-08
2.7772322e-08
2.7772322e-08
2.7772322e-08
2.7772322e-08
2.7772322e-08
2.7772322e-08
2.7772322e-08
2.7772322e-08
2.7772321e-08
2.7772321e-08
2.7772321e-08
2.777232e-08
2.7772318e-08
2.7772311e-08
2.7772322e-08
2.7772322e-08
2.7772322e-08
2.7772322e-08
2.7772322e-08
2.7772322e-08
2.7772322e-08
2.7772322e-08
2.7772321e-08
2.7772321e-08
2.7772321e-08
2.777232e-08
2.7772318e-08
2.7772311e-08
2.7772322e-08
2.7772322e-08
2.7772322e-08
2.7772322e-08
2.7772322e-08
2.7772322e-08
2.7772322e-08
2.7772322e-08
2.7772321e-08
2.7772321e-08
2.7772321e-08
2.777232e-08
2.7772318e-08
2.7772311e-08
2.7772322e-08
2.7772322e-08
2.7772322e-08
2.7772322e-08
2.7772322e-08
2.7772322e-08
2.7772322e-08
2.7772322e-08
2.7772321e-08
2.7772321e-08
2.7772321e-08
2.777232e-08
2.7772318e-08
2.7772311e-08
2.7772322e-08
2.7772322e-08
2.7772322e-08
2.7772322e-08
2.7772322e-08
2.7772322e-08
2.7772322e-08
2.7772322e-08
2.7772321e-08
2.7772321e-08
2.7772321e-08
2.777232e-08
2.7772318e-08
2.7772311e-08
2.7772322e-08
2.7772322e-08
2.7772322e-08
2.7772322e-08
2.7772322e-08
2.7772322e-08
2.7772322e-08
2.7772322e-08
2.7772321e-08
2.7772321e-08
2.7772321e-08
2.777232e-08
2.7772318e-08
2.7772311e-08
2.7772322e-08
2.7772322e-08
2.7772322e-08
2.7772322e-08
2.7772322e-08
2.7772322e-08
2.7772322e-08
2.7772322e-08
2.7772321e-08
2.7772321e-08
2.7772321e-08
2.777232e-08
2.7772318e-08
2.777231e-08
2.7772322e-08
2.7772322e-08
2.7772322e-08
2.7772322e-08
2.7772322e-08
2.7772322e-08
2.7772322e-08
2.7772322e-08
2.7772321e-08
2.7772321e-08
2.7772321e-08
2.777232e-08
2.7772318e-08
2.777231e-08
2.7772322e-08
2.7772322e-08
2.7772322e-08
2.7772322e-08
2.7772322e-08
2.7772322e-08
2.7772322e-08
2.7772322e-08
2.7772321e-08
2.7772321e-08
2.7772321e-08
2.777232e-08
2.7772318e-08
2.777231e-08
2.7772322e-08
2.7772321e-08
2.7772321e-08
2.7772321e-08
2.777232e-08
2.7772318e-08
2.777231e-08
2.7772322e-08
2.7772322e-08
2.7772322e-08
2.7772322e-08
2.7772322e-08
2.7772322e-08
2.7772322e-08
2.7772322e-08
2.7772322e-08
2.7772322e-08
2.7772322e-08
2.7772322e-08
2.7772322e-08
2.7772322e-08
2.7772322e-08
2.7772322e-08
2.7772322e-08
2.7772322e-08
2.7772322e-08
2.7772322e-08
2.7772322e-08
2.7772322e-08
2.7772322e-08
2.7772322e-08
2.7772322e-08
2.7772322e-08
2.7772322e-08
2.7772322e-08
2.7772322e-08
2.7772322e-08
2.7772322e-08
2.7772322e-08
2.7772322e-08
2.7772322e-08
2.7772322e-08
2.7772322e-08
2.7772322e-08
2.7772322e-08
2.7772322e-08
2.7772322e-08
2.7772322e-08
2.7772322e-08
2.7772322e-08
2.7772322e-08
2.7772322e-08
2.7772322e-08
2.7772322e-08
2.7772322e-08
2.7772322e-08
2.7772322e-08
2.7772322e-08
2.7772322e-08
2.7772322e-08
2.7772322e-08
2.7772322e-08
2.7772322e-08
2.7772322e-08
2.7772322e-08
2.7772322e-08
2.7772322e-08
2.7772322e-08
2.7772322e-08
2.7772322e-08
2.7772322e-08
2.7772322e-08
2.7772322e-08
2.7772322e-08
2.7772322e-08
2.7772322e-08
2.7772322e-08
2.7772322e-08
2.7772322e-08
2.7772322e-08
2.7772322e-08
2.7772322e-08
2.7772322e-08
2.7772322e-08
2.7772322e-08
2.7772322e-08
2.7772322e-08
2.7772322e-08
2.7772322e-08
2.7772322e-08
2.7772322e-08
2.7772322e-08
2.7772322e-08
2.7772322e-08
2.7772322e-08
2.7772322e-08
2.7772322e-08
2.7772322e-08
2.7772322e-08
2.7772322e-08
2.7772322e-08
2.7772322e-08
2.7772322e-08
2.7772322e-08
2.7772322e-08
2.7772322e-08
2.7772322e-08
2.7772322e-08
2.7772322e-08
2.7772322e-08
2.7772322e-08
2.7772322e-08
2.7772322e-08
2.7772322e-08
2.7772322e-08
2.7772322e-08
2.7772322e-08
2.7772322e-08
2.7772322e-08
2.7772322e-08
2.7772322e-08
2.7772322e-08
2.7772322e-08
2.7772322e-08
2.7772322e-08
2.7772322e-08
2.7772322e-08
2.7772322e-08
2.7772321e-08
2.7772321e-08
2.7772321e-08
2.7772321e-08
2.7772321e-08
2.7772321e-08
2.7772321e-08
2.7772321e-08
2.7772321e-08
2.7772321e-08
2.7772321e-08
2.7772321e-08
2.7772321e-08
2.7772321e-08
2.7772321e-08
2.7772321e-08
2.7772321e-08
2.7772321e-08
2.7772321e-08
2.7772321e-08
2.7772321e-08
2.7772321e-08
2.7772321e-08
2.7772321e-08
2.7772321e-08
2.7772321e-08
2.7772321e-08
2.7772321e-08
2.7772321e-08
2.7772321e-08
2.7772321e-08
2.7772321e-08
2.7772321e-08
2.777232e-08
2.777232e-08
2.777232e-08
2.777232e-08
2.777232e-08
2.777232e-08
2.777232e-08
2.777232e-08
2.777232e-08
2.777232e-08
2.777232e-08
2.777232e-08
2.777232e-08
2.777232e-08
2.7772319e-08
2.7772319e-08
2.7772318e-08
2.7772318e-08
2.7772318e-08
2.7772318e-08
2.7772318e-08
2.7772318e-08
2.7772318e-08
2.7772318e-08
2.7772318e-08
2.7772318e-08
2.7772318e-08
2.7772318e-08
2.7772313e-08
2.7772313e-08
2.7772313e-08
2.7772312e-08
2.7772312e-08
2.7772312e-08
2.7772312e-08
2.7772312e-08
2.7772312e-08
2.7772311e-08
2.7772311e-08
2.7772311e-08
2.7772311e-08
2.7772311e-08
2.777231e-08
2.777231e-08
2.777231e-08
2.7772311e-08
2.7772318e-08
2.7772318e-08
2.7772318e-08
2.7772318e-08
2.777232e-08
2.777232e-08
2.777232e-08
2.777232e-08
2.7772321e-08
2.7772321e-08
2.7772321e-08
2.7772321e-08
2.7772321e-08
2.7772321e-08
2.7772321e-08
2.7772321e-08
2.7772321e-08
2.7772321e-08
2.7772321e-08
2.7772321e-08
2.7772322e-08
2.7772322e-08
2.7772322e-08
2.7772322e-08
2.7772322e-08
2.7772322e-08
2.7772322e-08
2.7772322e-08
2.7772322e-08
2.7772322e-08
2.7772322e-08
2.7772322e-08
2.7772322e-08
2.7772322e-08
2.7772322e-08
2.7772322e-08
2.7772322e-08
2.7772322e-08
2.7772322e-08
2.7772322e-08
2.7772322e-08
2.7772322e-08
2.7772322e-08
2.7772322e-08
2.7772322e-08
2.7772322e-08
2.7772322e-08
2.7772322e-08
2.7772322e-08
2.7772322e-08
2.7772322e-08
2.7772322e-08
2.7772294e-08
2.7772289e-08
2.7772284e-08
2.7772276e-08
2.7772266e-08
2.7772252e-08
2.7772232e-08
2.7772202e-08
2.7772154e-08
2.7772073e-08
2.7771969e-08
2.7780957e-08
2.7778064e-08
3.4593564e-08
2.7772293e-08
2.7772288e-08
2.7772282e-08
2.7772274e-08
2.7772263e-08
2.7772249e-08
2.7772228e-08
2.7772197e-08
2.7772147e-08
2.7772062e-08
2.777196e-08
2.7780673e-08
2.7781501e-08
3.4370262e-08
2.7772292e-08
2.7772287e-08
2.777228e-08
2.7772272e-08
2.7772261e-08
2.7772246e-08
2.7772224e-08
2.7772192e-08
2.777214e-08
2.7772052e-08
2.7771948e-08
2.7780082e-08
2.7784654e-08
3.4076251e-08
2.7772291e-08
2.7772285e-08
2.7772279e-08
2.777227e-08
2.7772259e-08
2.7772243e-08
2.777222e-08
2.7772187e-08
2.7772133e-08
2.7772042e-08
2.7771934e-08
2.7779345e-08
2.7785917e-08
3.3801448e-08
2.7778589e-08
2.7785231e-08
3.3535452e-08
3.4649225e-08
3.4828706e-08
3.4978281e-08
3.5137255e-08
3.5308577e-08
3.5496981e-08
3.5695829e-08
3.5880629e-08
3.6069073e-08
3.6289545e-08
3.6560729e-08
3.6888683e-08
3.7277776e-08
3.7623659e-08
2.7766103e-08
2.77659e-08
2.7763328e-08
2.7760404e-08
2.7756884e-08
2.7752475e-08
2.7747106e-08
2.7741493e-08
2.7735287e-08
2.7727592e-08
2.771741e-08
2.7703845e-08
2.7685131e-08
2.7655144e-08
2.778043e-08
2.7780965e-08
2.7781404e-08
2.7781846e-08
2.7782298e-08
2.7782751e-08
2.7783158e-08
2.7783501e-08
2.7783832e-08
2.7784227e-08
2.7784698e-08
2.7785232e-08
2.7785704e-08
2.7785394e-08
2.7771963e-08
2.7771966e-08
2.7771969e-08
2.7771972e-08
2.7771976e-08
2.777198e-08
2.7771983e-08
2.7771982e-08
2.7771985e-08
2.7771988e-08
2.7771989e-08
2.7771989e-08
2.7771983e-08
2.777197e-08
2.777208e-08
2.7772081e-08
2.7772083e-08
2.7772087e-08
2.7772091e-08
2.7772095e-08
2.77721e-08
2.7772102e-08
2.7772108e-08
2.7772114e-08
2.777212e-08
2.7772127e-08
2.7772134e-08
2.7772141e-08
2.7772159e-08
2.7772159e-08
2.7772161e-08
2.7772163e-08
2.7772166e-08
2.7772169e-08
2.7772172e-08
2.7772174e-08
2.7772178e-08
2.7772182e-08
2.7772186e-08
2.7772191e-08
2.7772195e-08
2.77722e-08
2.7772205e-08
2.7772205e-08
2.7772207e-08
2.7772208e-08
2.777221e-08
2.7772212e-08
2.7772214e-08
2.7772216e-08
2.7772219e-08
2.7772221e-08
2.7772225e-08
2.7772228e-08
2.7772231e-08
2.7772235e-08
2.7772234e-08
2.7772234e-08
2.7772235e-08
2.7772236e-08
2.7772238e-08
2.7772239e-08
2.7772241e-08
2.7772242e-08
2.7772244e-08
2.7772246e-08
2.7772249e-08
2.7772251e-08
2.7772254e-08
2.7772257e-08
2.7772253e-08
2.7772254e-08
2.7772254e-08
2.7772255e-08
2.7772256e-08
2.7772258e-08
2.7772259e-08
2.777226e-08
2.7772262e-08
2.7772263e-08
2.7772265e-08
2.7772267e-08
2.7772269e-08
2.7772271e-08
2.7772267e-08
2.7772267e-08
2.7772268e-08
2.7772269e-08
2.7772269e-08
2.777227e-08
2.7772272e-08
2.7772273e-08
2.7772274e-08
2.7772275e-08
2.7772276e-08
2.7772278e-08
2.777228e-08
2.7772281e-08
2.7772277e-08
2.7772277e-08
2.7772278e-08
2.7772278e-08
2.7772279e-08
2.777228e-08
2.7772281e-08
2.7772282e-08
2.7772282e-08
2.7772284e-08
2.7772285e-08
2.7772286e-08
2.7772287e-08
2.7772289e-08
2.7772284e-08
2.7772285e-08
2.7772285e-08
2.7772286e-08
2.7772286e-08
2.7772287e-08
2.7772288e-08
2.7772288e-08
2.7772289e-08
2.777229e-08
2.7772291e-08
2.7772292e-08
2.7772293e-08
2.7772294e-08
2.777229e-08
2.777229e-08
2.7772291e-08
2.7772291e-08
2.7772292e-08
2.7772292e-08
2.7772293e-08
2.7772294e-08
2.7772294e-08
2.7772295e-08
2.7772296e-08
2.7772297e-08
2.7772298e-08
2.7772299e-08
2.7772295e-08
2.7772295e-08
2.7772295e-08
2.7772296e-08
2.7772296e-08
2.7772296e-08
2.7772297e-08
2.7772298e-08
2.7772298e-08
2.7772299e-08
2.77723e-08
2.77723e-08
2.7772301e-08
2.7772302e-08
2.7772302e-08
2.7772303e-08
2.7772303e-08
2.7772304e-08
2.7772305e-08
2.7772305e-08
2.7772305e-08
2.7772305e-08
2.7772305e-08
2.7772305e-08
2.7772304e-08
2.7772304e-08
2.7772303e-08
2.7772303e-08
2.7772298e-08
2.7772299e-08
2.77723e-08
2.7772301e-08
2.7772302e-08
2.7772302e-08
2.7772302e-08
2.7772302e-08
2.7772302e-08
2.7772302e-08
2.7772302e-08
2.7772301e-08
2.77723e-08
2.77723e-08
2.7772294e-08
2.7772295e-08
2.7772296e-08
2.7772297e-08
2.7772298e-08
2.7772299e-08
2.7772299e-08
2.7772299e-08
2.7772299e-08
2.7772298e-08
2.7772298e-08
2.7772297e-08
2.7772296e-08
2.7772295e-08
2.7772288e-08
2.777229e-08
2.7772291e-08
2.7772293e-08
2.7772294e-08
2.7772294e-08
2.7772294e-08
2.7772294e-08
2.7772294e-08
2.7772294e-08
2.7772293e-08
2.7772292e-08
2.7772291e-08
2.777229e-08
2.7772281e-08
2.7772283e-08
2.7772285e-08
2.7772286e-08
2.7772287e-08
2.7772288e-08
2.7772288e-08
2.7772288e-08
2.7772288e-08
2.7772287e-08
2.7772287e-08
2.7772286e-08
2.7772284e-08
2.7772283e-08
2.7772271e-08
2.7772273e-08
2.7772275e-08
2.7772277e-08
2.7772279e-08
2.777228e-08
2.777228e-08
2.777228e-08
2.777228e-08
2.7772279e-08
2.7772278e-08
2.7772277e-08
2.7772275e-08
2.7772273e-08
2.7772256e-08
2.7772259e-08
2.7772262e-08
2.7772265e-08
2.7772267e-08
2.7772268e-08
2.7772268e-08
2.7772268e-08
2.7772268e-08
2.7772267e-08
2.7772265e-08
2.7772264e-08
2.7772261e-08
2.7772259e-08
2.7772234e-08
2.7772238e-08
2.7772242e-08
2.7772246e-08
2.7772249e-08
2.7772251e-08
2.7772251e-08
2.7772251e-08
2.7772251e-08
2.7772249e-08
2.7772246e-08
2.7772244e-08
2.7772241e-08
2.7772239e-08
2.7772199e-08
2.7772205e-08
2.7772211e-08
2.7772216e-08
2.7772221e-08
2.7772222e-08
2.7772223e-08
2.7772222e-08
2.7772222e-08
2.7772219e-08
2.7772216e-08
2.7772213e-08
2.7772208e-08
2.7772206e-08
2.7772139e-08
2.7772149e-08
2.7772162e-08
2.7772181e-08
2.7772205e-08
2.7772224e-08
2.7772237e-08
2.7772242e-08
2.7772231e-08
2.7772205e-08
2.7772181e-08
2.7772167e-08
2.7772157e-08
2.777215e-08
2.7771976e-08
2.7771906e-08
2.7771727e-08
2.7771285e-08
2.7770685e-08
2.7770132e-08
2.7769768e-08
2.7769619e-08
2.7769932e-08
2.7770654e-08
2.777129e-08
2.7771655e-08
2.7771837e-08
2.777193e-08
2.7779537e-08
2.7782816e-08
2.77899e-08
2.7805188e-08
2.7822396e-08
2.783624e-08
2.7845085e-08
2.7848858e-08
2.7840907e-08
2.782191e-08
2.7803316e-08
2.7791778e-08
2.7785609e-08
2.7782117e-08
2.7701646e-08
2.7617033e-08
2.7449016e-08
2.7106054e-08
2.6777601e-08
2.6550124e-08
2.6402076e-08
2.6344505e-08
2.6473283e-08
2.678295e-08
2.7135735e-08
2.7377401e-08
2.752067e-08
2.7610464e-08
3.5520617e-08
3.7045722e-08
3.9343584e-08
4.3172901e-08
4.6235167e-08
4.8198311e-08
4.9282846e-08
4.9587381e-08
4.8534584e-08
4.5779365e-08
4.2509391e-08
3.9926766e-08
3.824199e-08
3.6952139e-08
2.7772301e-08
2.7772297e-08
2.7772293e-08
2.7772287e-08
2.7772279e-08
2.7772268e-08
2.7772253e-08
2.777223e-08
2.7772193e-08
2.777213e-08
2.777202e-08
2.7781912e-08
2.7750121e-08
3.560425e-08
2.77723e-08
2.7772296e-08
2.7772291e-08
2.7772285e-08
2.7772277e-08
2.7772266e-08
2.777225e-08
2.7772226e-08
2.7772187e-08
2.7772121e-08
2.777203e-08
2.778148e-08
2.776926e-08
3.509878e-08
2.7772299e-08
2.7772295e-08
2.777229e-08
2.7772284e-08
2.7772275e-08
2.7772264e-08
2.7772247e-08
2.7772222e-08
2.7772182e-08
2.7772113e-08
2.7772025e-08
2.7780493e-08
2.7777526e-08
3.4685413e-08
2.7772298e-08
2.7772294e-08
2.7772289e-08
2.7772282e-08
2.7772274e-08
2.7772261e-08
2.7772244e-08
2.7772218e-08
2.7772177e-08
2.7772106e-08
2.7772015e-08
2.7779655e-08
2.7781384e-08
3.4361601e-08
2.7772297e-08
2.7772293e-08
2.7772288e-08
2.7772281e-08
2.7772272e-08
2.777226e-08
2.7772242e-08
2.7772215e-08
2.7772172e-08
2.7772099e-08
2.7772005e-08
2.777895e-08
2.7783424e-08
3.4097087e-08
2.7772297e-08
2.7772292e-08
2.7772287e-08
2.777228e-08
2.7772271e-08
2.7772258e-08
2.7772239e-08
2.7772212e-08
2.7772168e-08
2.7772093e-08
2.7771994e-08
2.7778295e-08
2.7784478e-08
3.3858275e-08
2.7772296e-08
2.7772292e-08
2.7772286e-08
2.7772279e-08
2.7772269e-08
2.7772256e-08
2.7772237e-08
2.7772209e-08
2.7772164e-08
2.7772087e-08
2.7771984e-08
2.7777682e-08
2.7784746e-08
3.3660336e-08
2.7772296e-08
2.7772291e-08
2.7772285e-08
2.7772278e-08
2.7772268e-08
2.7772254e-08
2.7772235e-08
2.7772206e-08
2.777216e-08
2.7772082e-08
2.7771975e-08
2.7777094e-08
2.7784718e-08
3.346383e-08
2.7772295e-08
2.777229e-08
2.7772285e-08
2.7772277e-08
2.7772267e-08
2.7772254e-08
2.7772234e-08
2.7772205e-08
2.7772159e-08
2.7772079e-08
2.7771967e-08
2.77765e-08
2.7784147e-08
3.3290327e-08
2.7772294e-08
2.777229e-08
2.7772284e-08
2.7772276e-08
2.7772266e-08
2.7772252e-08
2.7772232e-08
2.7772203e-08
2.7772155e-08
2.7772075e-08
2.7771955e-08
2.7775937e-08
2.7783237e-08
3.3126759e-08
2.7772294e-08
2.7772289e-08
2.7772283e-08
2.7772275e-08
2.7772265e-08
2.7772251e-08
2.7772231e-08
2.7772201e-08
2.7772153e-08
2.777207e-08
2.7771946e-08
2.777541e-08
2.7781997e-08
3.297145e-08
2.7772293e-08
2.7772289e-08
2.7772283e-08
2.7772275e-08
2.7772264e-08
2.777225e-08
2.7772229e-08
2.7772199e-08
2.777215e-08
2.7772066e-08
2.7771935e-08
2.7774961e-08
2.778048e-08
3.2824855e-08
2.7772293e-08
2.7772288e-08
2.7772282e-08
2.7772274e-08
2.7772264e-08
2.7772249e-08
2.7772228e-08
2.7772197e-08
2.7772148e-08
2.7772063e-08
2.7771937e-08
2.7775006e-08
2.7777765e-08
3.2685933e-08
2.7772293e-08
2.7772288e-08
2.7772282e-08
2.7772274e-08
2.7772263e-08
2.7772249e-08
2.7772228e-08
2.7772196e-08
2.7772147e-08
2.7772061e-08
2.7771908e-08
2.7772892e-08
2.7776521e-08
3.2541657e-08
2.7772292e-08
2.7772287e-08
2.7772281e-08
2.7772273e-08
2.7772262e-08
2.7772247e-08
2.7772226e-08
2.7772194e-08
2.7772143e-08
2.7772055e-08
2.7771888e-08
2.7771767e-08
2.7777423e-08
3.2461555e-08
2.7772292e-08
2.7772287e-08
2.777228e-08
2.7772272e-08
2.7772261e-08
2.7772245e-08
2.7772224e-08
2.7772191e-08
2.7772139e-08
2.7772048e-08
2.777186e-08
2.7771079e-08
2.7772061e-08
3.2227443e-08
2.7772291e-08
2.7772286e-08
2.7772279e-08
2.7772271e-08
2.7772259e-08
2.7772244e-08
2.7772221e-08
2.7772188e-08
2.7772134e-08
2.7772041e-08
2.7771827e-08
2.7770044e-08
2.7767462e-08
3.1992417e-08
2.777229e-08
2.7772285e-08
2.7772278e-08
2.7772269e-08
2.7772258e-08
2.7772242e-08
2.7772219e-08
2.7772185e-08
2.777213e-08
2.7772034e-08
2.7771785e-08
2.7768865e-08
2.7763314e-08
3.1771079e-08
)
;

boundaryField
{
    Side
    {
        type            empty;
    }
    Inlet
    {
        type            inletOutlet;
        inletValue      uniform 3.9592226e-07;
        value           nonuniform List<scalar> 
49
(
3.9592226e-07
3.9592226e-07
3.9592226e-07
3.9592226e-07
3.9592226e-07
3.9592226e-07
3.9592226e-07
3.9592226e-07
3.9592226e-07
3.9592226e-07
3.9592226e-07
3.9592226e-07
3.9592226e-07
3.9592226e-07
2.7772322e-08
2.7772322e-08
2.7772322e-08
2.7772322e-08
2.7772322e-08
2.7772322e-08
2.7772322e-08
2.7772322e-08
2.7772322e-08
2.7772322e-08
2.7772322e-08
2.7772322e-08
2.7772322e-08
2.7772322e-08
2.7772322e-08
2.7772322e-08
2.7772322e-08
3.9592226e-07
3.9592226e-07
3.9592226e-07
3.9592226e-07
3.9592226e-07
3.9592226e-07
3.9592226e-07
3.9592226e-07
3.9592226e-07
3.9592226e-07
3.9592226e-07
3.9592226e-07
3.9592226e-07
3.9592226e-07
3.9592226e-07
3.9592226e-07
3.9592226e-07
3.9592226e-07
)
;
    }
    Airfoil
    {
        type            nutUSpaldingWallFunction;
        value           nonuniform List<scalar> 
51
(
1.5435258e-05
1.5188923e-05
1.4964877e-05
1.4755061e-05
1.4563154e-05
1.5687614e-05
1.5734845e-05
1.5792094e-05
1.5860284e-05
1.5939403e-05
1.6029984e-05
1.6133069e-05
1.6249995e-05
1.6382634e-05
1.6533074e-05
1.6704076e-05
1.6898114e-05
1.711491e-05
1.7362173e-05
1.7838278e-05
1.776556e-05
1.7663778e-05
1.8026179e-05
1.825236e-05
1.8334834e-05
1.8341814e-05
1.8361301e-05
1.8234757e-05
1.7717414e-05
1.7399516e-05
1.756568e-05
1.7894112e-05
1.8057587e-05
1.7101847e-05
1.6839194e-05
1.6619183e-05
1.642858e-05
1.6263062e-05
1.6116516e-05
1.5987681e-05
1.5872442e-05
1.5770078e-05
1.5679157e-05
1.5598829e-05
1.5528288e-05
1.5466733e-05
1.5413967e-05
1.5215606e-05
1.5067352e-05
1.4932593e-05
1.4810729e-05
)
;
    }
    Outlet
    {
        type            zeroGradient;
    }
    Flap
    {
        type            nutUSpaldingWallFunction;
        value           nonuniform List<scalar> 0();
    }
    procBoundary0to1
    {
        type            processor;
        value           nonuniform List<scalar> 
58
(
2.7772322e-08
2.7772322e-08
2.7772322e-08
2.7772322e-08
2.7772322e-08
2.7772322e-08
2.7772322e-08
2.7772322e-08
2.7772322e-08
2.7772321e-08
2.7772321e-08
2.7772321e-08
2.777232e-08
2.7772318e-08
2.777231e-08
2.777231e-08
2.7772318e-08
2.777232e-08
2.7772321e-08
2.7772321e-08
2.7772321e-08
2.7772322e-08
2.7772322e-08
2.7772322e-08
2.7772322e-08
2.7772322e-08
2.7772322e-08
2.7772322e-08
2.7772322e-08
2.777229e-08
2.7772284e-08
2.7772277e-08
2.7772269e-08
2.7772257e-08
2.777224e-08
2.7772217e-08
2.7772183e-08
2.7772127e-08
2.7772032e-08
2.7771925e-08
2.7771925e-08
2.7779003e-08
2.778073e-08
3.3204739e-08
2.777229e-08
2.7772284e-08
2.7772277e-08
2.7772269e-08
2.7772257e-08
2.777224e-08
2.7772217e-08
2.7772182e-08
2.7772127e-08
2.7772029e-08
2.7771739e-08
2.7767601e-08
2.775927e-08
3.1532719e-08
)
;
    }
}


// ************************************************************************* //
