/*--------------------------------*- C++ -*----------------------------------*\
| =========                 |                                                 |
| \\      /  F ield         | OpenFOAM: The Open Source CFD Toolbox           |
|  \\    /   O peration     | Version:  2206                                  |
|   \\  /    A nd           | Website:  www.openfoam.com                      |
|    \\/     M anipulation  |                                                 |
\*---------------------------------------------------------------------------*/
FoamFile
{
    version     2.0;
    format      ascii;
    arch        "LSB;label=32;scalar=64";
    class       volScalarField;
    location    "0.01";
    object      nuTilda;
}
// * * * * * * * * * * * * * * * * * * * * * * * * * * * * * * * * * * * * * //

dimensions      [0 2 -1 0 0 0 0];

internalField   nonuniform List<scalar> 
1396
(
3.9592226e-07
3.9592226e-07
3.9592226e-07
3.9592226e-07
3.9592226e-07
3.9592226e-07
3.9592226e-07
3.9592226e-07
3.9592226e-07
3.9592226e-07
3.9592226e-07
3.9592225e-07
3.9592225e-07
3.9592223e-07
3.9592226e-07
3.9592226e-07
3.9592226e-07
3.9592226e-07
3.9592226e-07
3.9592226e-07
3.9592226e-07
3.9592226e-07
3.9592226e-07
3.9592226e-07
3.9592226e-07
3.9592225e-07
3.9592225e-07
3.9592223e-07
3.9592226e-07
3.9592226e-07
3.9592226e-07
3.9592226e-07
3.9592226e-07
3.9592226e-07
3.9592226e-07
3.9592226e-07
3.9592226e-07
3.9592226e-07
3.9592226e-07
3.9592225e-07
3.9592225e-07
3.9592223e-07
3.9592226e-07
3.9592226e-07
3.9592226e-07
3.9592226e-07
3.9592226e-07
3.9592226e-07
3.9592226e-07
3.9592226e-07
3.9592226e-07
3.9592226e-07
3.9592226e-07
3.9592225e-07
3.9592225e-07
3.9592223e-07
3.9592226e-07
3.9592226e-07
3.9592226e-07
3.9592226e-07
3.9592226e-07
3.9592226e-07
3.9592226e-07
3.9592226e-07
3.9592226e-07
3.9592226e-07
3.9592226e-07
3.9592225e-07
3.9592225e-07
3.9592223e-07
3.9592226e-07
3.9592226e-07
3.9592226e-07
3.9592226e-07
3.9592226e-07
3.9592226e-07
3.9592226e-07
3.9592226e-07
3.9592226e-07
3.9592226e-07
3.9592226e-07
3.9592225e-07
3.9592225e-07
3.9592223e-07
3.9592226e-07
3.9592226e-07
3.9592226e-07
3.9592226e-07
3.9592226e-07
3.9592226e-07
3.9592226e-07
3.9592226e-07
3.9592226e-07
3.9592226e-07
3.9592226e-07
3.9592225e-07
3.9592225e-07
3.9592223e-07
3.9592226e-07
3.9592226e-07
3.9592226e-07
3.9592226e-07
3.9592226e-07
3.9592226e-07
3.9592226e-07
3.9592226e-07
3.9592226e-07
3.9592226e-07
3.9592226e-07
3.9592225e-07
3.9592225e-07
3.9592223e-07
3.9592226e-07
3.9592226e-07
3.9592226e-07
3.9592226e-07
3.9592226e-07
3.9592226e-07
3.9592226e-07
3.9592226e-07
3.9592226e-07
3.9592226e-07
3.9592226e-07
3.9592225e-07
3.9592225e-07
3.9592223e-07
3.9592226e-07
3.9592226e-07
3.9592226e-07
3.9592226e-07
3.9592226e-07
3.9592226e-07
3.9592226e-07
3.9592226e-07
3.9592226e-07
3.9592226e-07
3.9592226e-07
3.9592225e-07
3.9592225e-07
3.9592223e-07
3.9592226e-07
3.9592226e-07
3.9592226e-07
3.9592226e-07
3.9592226e-07
3.9592226e-07
3.9592226e-07
3.9592226e-07
3.9592226e-07
3.9592226e-07
3.9592226e-07
3.9592225e-07
3.9592225e-07
3.9592223e-07
3.9592226e-07
3.9592226e-07
3.9592226e-07
3.9592226e-07
3.9592226e-07
3.9592226e-07
3.9592226e-07
3.9592226e-07
3.9592226e-07
3.9592226e-07
3.9592226e-07
3.9592225e-07
3.9592225e-07
3.9592223e-07
3.9592226e-07
3.9592226e-07
3.9592226e-07
3.9592226e-07
3.9592226e-07
3.9592226e-07
3.9592226e-07
3.9592226e-07
3.9592226e-07
3.9592226e-07
3.9592226e-07
3.9592225e-07
3.9592225e-07
3.9592223e-07
3.9592226e-07
3.9592226e-07
3.9592226e-07
3.9592226e-07
3.9592226e-07
3.9592226e-07
3.9592226e-07
3.9592226e-07
3.9592226e-07
3.9592226e-07
3.9592226e-07
3.9592225e-07
3.9592225e-07
3.9592223e-07
3.9592226e-07
3.9592226e-07
3.9592226e-07
3.9592226e-07
3.9592226e-07
3.9592226e-07
3.9592226e-07
3.9592226e-07
3.9592226e-07
3.9592226e-07
3.9592226e-07
3.9592225e-07
3.9592225e-07
3.9592223e-07
3.9592226e-07
3.9592226e-07
3.9592226e-07
3.9592226e-07
3.9592226e-07
3.9592226e-07
3.9592226e-07
3.9592226e-07
3.9592226e-07
3.9592226e-07
3.9592226e-07
3.9592225e-07
3.9592225e-07
3.9592222e-07
3.9592226e-07
3.9592226e-07
3.9592226e-07
3.9592226e-07
3.9592226e-07
3.9592226e-07
3.9592226e-07
3.9592226e-07
3.9592226e-07
3.9592226e-07
3.9592226e-07
3.9592225e-07
3.9592225e-07
3.9592222e-07
3.9592226e-07
3.9592226e-07
3.9592226e-07
3.9592226e-07
3.9592226e-07
3.9592226e-07
3.9592226e-07
3.9592226e-07
3.9592226e-07
3.9592226e-07
3.9592226e-07
3.9592225e-07
3.9592225e-07
3.9592222e-07
3.9592226e-07
3.9592226e-07
3.9592226e-07
3.9592226e-07
3.9592226e-07
3.9592226e-07
3.9592226e-07
3.9592226e-07
3.9592226e-07
3.9592226e-07
3.9592226e-07
3.9592225e-07
3.9592225e-07
3.9592222e-07
3.9592226e-07
3.9592226e-07
3.9592226e-07
3.9592226e-07
3.9592226e-07
3.9592226e-07
3.9592226e-07
3.9592226e-07
3.9592226e-07
3.9592226e-07
3.9592226e-07
3.9592225e-07
3.9592225e-07
3.9592222e-07
3.9592226e-07
3.9592226e-07
3.9592226e-07
3.9592226e-07
3.9592226e-07
3.9592226e-07
3.9592226e-07
3.9592226e-07
3.9592226e-07
3.9592226e-07
3.9592226e-07
3.9592225e-07
3.9592225e-07
3.9592222e-07
3.9592226e-07
3.9592226e-07
3.9592226e-07
3.9592226e-07
3.9592226e-07
3.9592226e-07
3.9592226e-07
3.9592226e-07
3.9592226e-07
3.9592226e-07
3.9592226e-07
3.9592225e-07
3.9592225e-07
3.9592222e-07
3.9592226e-07
3.9592226e-07
3.9592226e-07
3.9592226e-07
3.9592226e-07
3.9592226e-07
3.9592226e-07
3.9592226e-07
3.9592226e-07
3.9592226e-07
3.9592226e-07
3.9592225e-07
3.9592225e-07
3.9592222e-07
3.9592226e-07
3.9592226e-07
3.9592226e-07
3.9592226e-07
3.9592226e-07
3.9592226e-07
3.9592226e-07
3.9592226e-07
3.9592226e-07
3.9592226e-07
3.9592226e-07
3.9592225e-07
3.9592224e-07
3.9592222e-07
3.9592226e-07
3.9592226e-07
3.9592226e-07
3.9592226e-07
3.9592226e-07
3.9592226e-07
3.9592226e-07
3.9592226e-07
3.9592226e-07
3.9592226e-07
3.9592226e-07
3.9592225e-07
3.9592224e-07
3.9592222e-07
3.9592226e-07
3.9592226e-07
3.9592226e-07
3.9592226e-07
3.9592226e-07
3.9592226e-07
3.9592226e-07
3.9592226e-07
3.9592226e-07
3.9592226e-07
3.9592226e-07
3.9592225e-07
3.9592224e-07
3.9592222e-07
3.9592226e-07
3.9592226e-07
3.9592226e-07
3.9592226e-07
3.9592226e-07
3.9592226e-07
3.9592226e-07
3.9592226e-07
3.9592226e-07
3.9592226e-07
3.9592226e-07
3.9592225e-07
3.9592224e-07
3.9592222e-07
3.9592226e-07
3.9592226e-07
3.9592226e-07
3.9592226e-07
3.9592226e-07
3.9592226e-07
3.9592226e-07
3.9592226e-07
3.9592226e-07
3.9592226e-07
3.9592226e-07
3.9592225e-07
3.9592224e-07
3.9592222e-07
3.9592226e-07
3.9592226e-07
3.9592226e-07
3.9592226e-07
3.9592226e-07
3.9592226e-07
3.9592226e-07
3.9592226e-07
3.9592226e-07
3.9592226e-07
3.9592226e-07
3.9592225e-07
3.9592224e-07
3.9592222e-07
3.9592226e-07
3.9592226e-07
3.9592226e-07
3.9592226e-07
3.9592226e-07
3.9592226e-07
3.9592226e-07
3.9592226e-07
3.9592226e-07
3.9592226e-07
3.9592226e-07
3.9592225e-07
3.9592224e-07
3.9592221e-07
3.9592226e-07
3.9592226e-07
3.9592226e-07
3.9592226e-07
3.9592226e-07
3.9592226e-07
3.9592226e-07
3.9592226e-07
3.9592226e-07
3.9592226e-07
3.9592226e-07
3.9592225e-07
3.9592224e-07
3.9592221e-07
3.9592226e-07
3.9592226e-07
3.9592226e-07
3.9592226e-07
3.9592225e-07
3.9592224e-07
3.9592221e-07
3.9592226e-07
3.9592226e-07
3.9592226e-07
3.9592226e-07
3.9592226e-07
3.9592226e-07
3.9592226e-07
3.9592226e-07
3.9592226e-07
3.9592226e-07
3.9592226e-07
3.9592226e-07
3.9592226e-07
3.9592226e-07
3.9592226e-07
3.9592226e-07
3.9592226e-07
3.9592226e-07
3.9592226e-07
3.9592226e-07
3.9592226e-07
3.9592226e-07
3.9592226e-07
3.9592226e-07
3.9592226e-07
3.9592226e-07
3.9592226e-07
3.9592226e-07
3.9592226e-07
3.9592226e-07
3.9592226e-07
3.9592226e-07
3.9592226e-07
3.9592226e-07
3.9592226e-07
3.9592226e-07
3.9592226e-07
3.9592226e-07
3.9592226e-07
3.9592226e-07
3.9592226e-07
3.9592226e-07
3.9592226e-07
3.9592226e-07
3.9592226e-07
3.9592226e-07
3.9592226e-07
3.9592226e-07
3.9592226e-07
3.9592226e-07
3.9592226e-07
3.9592226e-07
3.9592226e-07
3.9592226e-07
3.9592226e-07
3.9592226e-07
3.9592226e-07
3.9592226e-07
3.9592226e-07
3.9592226e-07
3.9592226e-07
3.9592226e-07
3.9592226e-07
3.9592226e-07
3.9592226e-07
3.9592226e-07
3.9592226e-07
3.9592226e-07
3.9592226e-07
3.9592226e-07
3.9592226e-07
3.9592226e-07
3.9592226e-07
3.9592226e-07
3.9592226e-07
3.9592226e-07
3.9592226e-07
3.9592226e-07
3.9592226e-07
3.9592226e-07
3.9592226e-07
3.9592226e-07
3.9592226e-07
3.9592226e-07
3.9592226e-07
3.9592226e-07
3.9592226e-07
3.9592226e-07
3.9592226e-07
3.9592226e-07
3.9592226e-07
3.9592226e-07
3.9592226e-07
3.9592226e-07
3.9592226e-07
3.9592226e-07
3.9592226e-07
3.9592226e-07
3.9592226e-07
3.9592226e-07
3.9592226e-07
3.9592226e-07
3.9592226e-07
3.9592226e-07
3.9592226e-07
3.9592226e-07
3.9592226e-07
3.9592226e-07
3.9592226e-07
3.9592226e-07
3.9592226e-07
3.9592226e-07
3.9592226e-07
3.9592226e-07
3.9592226e-07
3.9592226e-07
3.9592226e-07
3.9592226e-07
3.9592226e-07
3.9592226e-07
3.9592226e-07
3.9592226e-07
3.9592226e-07
3.9592226e-07
3.9592226e-07
3.9592226e-07
3.9592226e-07
3.9592226e-07
3.9592226e-07
3.9592226e-07
3.9592226e-07
3.9592226e-07
3.9592226e-07
3.9592226e-07
3.9592226e-07
3.9592226e-07
3.9592226e-07
3.9592226e-07
3.9592226e-07
3.9592226e-07
3.9592226e-07
3.9592226e-07
3.9592226e-07
3.9592226e-07
3.9592226e-07
3.9592226e-07
3.9592226e-07
3.9592226e-07
3.9592226e-07
3.9592226e-07
3.9592226e-07
3.9592226e-07
3.9592226e-07
3.9592226e-07
3.9592225e-07
3.9592225e-07
3.9592225e-07
3.9592225e-07
3.9592225e-07
3.9592225e-07
3.9592225e-07
3.9592225e-07
3.9592225e-07
3.9592225e-07
3.9592225e-07
3.9592225e-07
3.9592225e-07
3.9592225e-07
3.9592225e-07
3.9592225e-07
3.9592225e-07
3.9592225e-07
3.9592225e-07
3.9592225e-07
3.9592225e-07
3.9592225e-07
3.9592225e-07
3.9592225e-07
3.9592225e-07
3.9592225e-07
3.9592225e-07
3.9592224e-07
3.9592223e-07
3.9592223e-07
3.9592222e-07
3.9592222e-07
3.9592222e-07
3.9592222e-07
3.9592222e-07
3.9592222e-07
3.9592222e-07
3.9592222e-07
3.9592222e-07
3.9592222e-07
3.9592222e-07
3.9592222e-07
3.9592221e-07
3.9592221e-07
3.9592222e-07
3.9592222e-07
3.9592224e-07
3.9592224e-07
3.9592224e-07
3.9592224e-07
3.9592225e-07
3.9592225e-07
3.9592225e-07
3.9592225e-07
3.9592226e-07
3.9592226e-07
3.9592226e-07
3.9592226e-07
3.9592226e-07
3.9592226e-07
3.9592226e-07
3.9592226e-07
3.9592226e-07
3.9592226e-07
3.9592226e-07
3.9592226e-07
3.9592226e-07
3.9592226e-07
3.9592226e-07
3.9592226e-07
3.9592226e-07
3.9592226e-07
3.9592226e-07
3.9592226e-07
3.9592226e-07
3.9592226e-07
3.9592226e-07
3.9592226e-07
3.9592226e-07
3.9592226e-07
3.9592226e-07
3.9592226e-07
3.9592226e-07
3.9592226e-07
3.9592226e-07
3.9592226e-07
3.9592226e-07
3.9592226e-07
3.9592226e-07
3.9592226e-07
3.9592226e-07
3.9592226e-07
3.9592226e-07
3.9592226e-07
3.9592226e-07
3.9592226e-07
3.9592226e-07
3.9592226e-07
3.9592215e-07
3.9592214e-07
3.9592211e-07
3.9592209e-07
3.9592205e-07
3.9592199e-07
3.9592192e-07
3.9592181e-07
3.9592163e-07
3.9592132e-07
3.9592081e-07
3.9593038e-07
3.9583591e-07
4.1276836e-07
3.9592215e-07
3.9592213e-07
3.9592211e-07
3.9592208e-07
3.9592204e-07
3.9592198e-07
3.9592191e-07
3.9592179e-07
3.959216e-07
3.9592128e-07
3.9592076e-07
3.9592985e-07
3.958484e-07
4.1287305e-07
3.9592215e-07
3.9592213e-07
3.959221e-07
3.9592207e-07
3.9592203e-07
3.9592197e-07
3.9592189e-07
3.9592177e-07
3.9592158e-07
3.9592124e-07
3.959207e-07
3.959289e-07
3.9586671e-07
4.1293227e-07
3.9592214e-07
3.9592212e-07
3.959221e-07
3.9592206e-07
3.9592202e-07
3.9592196e-07
3.9592188e-07
3.9592175e-07
3.9592155e-07
3.959212e-07
3.9592063e-07
3.9592777e-07
3.9588263e-07
4.1297779e-07
3.9592657e-07
3.9589701e-07
4.130499e-07
4.123522e-07
4.1240607e-07
4.124023e-07
4.124033e-07
4.1240236e-07
4.1239684e-07
4.1238589e-07
4.1237372e-07
4.1236405e-07
4.1235663e-07
4.1234723e-07
4.1232717e-07
4.1226511e-07
4.1198248e-07
3.9580824e-07
3.9580288e-07
3.9579592e-07
3.9578858e-07
3.9578064e-07
3.9577153e-07
3.9576144e-07
3.9575206e-07
3.957423e-07
3.9573064e-07
3.9571589e-07
3.9569718e-07
3.9567446e-07
3.956489e-07
3.9593017e-07
3.9593083e-07
3.9593143e-07
3.9593205e-07
3.9593268e-07
3.9593334e-07
3.9593395e-07
3.9593451e-07
3.9593504e-07
3.9593569e-07
3.9593646e-07
3.9593729e-07
3.9593791e-07
3.9593759e-07
3.9592084e-07
3.9592085e-07
3.9592086e-07
3.9592088e-07
3.959209e-07
3.9592093e-07
3.9592095e-07
3.9592097e-07
3.9592099e-07
3.9592102e-07
3.9592105e-07
3.9592107e-07
3.9592109e-07
3.959211e-07
3.9592135e-07
3.9592135e-07
3.9592136e-07
3.9592137e-07
3.9592139e-07
3.959214e-07
3.9592142e-07
3.9592143e-07
3.9592145e-07
3.9592147e-07
3.959215e-07
3.9592152e-07
3.9592155e-07
3.9592158e-07
3.9592164e-07
3.9592165e-07
3.9592165e-07
3.9592166e-07
3.9592167e-07
3.9592168e-07
3.959217e-07
3.959217e-07
3.9592172e-07
3.9592173e-07
3.9592175e-07
3.9592177e-07
3.9592178e-07
3.959218e-07
3.9592182e-07
3.9592182e-07
3.9592183e-07
3.9592183e-07
3.9592184e-07
3.9592185e-07
3.9592185e-07
3.9592186e-07
3.9592187e-07
3.9592188e-07
3.9592189e-07
3.9592191e-07
3.9592192e-07
3.9592193e-07
3.9592193e-07
3.9592193e-07
3.9592193e-07
3.9592194e-07
3.9592194e-07
3.9592195e-07
3.9592196e-07
3.9592196e-07
3.9592197e-07
3.9592198e-07
3.9592198e-07
3.9592199e-07
3.95922e-07
3.9592201e-07
3.95922e-07
3.95922e-07
3.9592201e-07
3.9592201e-07
3.9592201e-07
3.9592202e-07
3.9592202e-07
3.9592203e-07
3.9592203e-07
3.9592204e-07
3.9592205e-07
3.9592205e-07
3.9592206e-07
3.9592207e-07
3.9592205e-07
3.9592205e-07
3.9592206e-07
3.9592206e-07
3.9592206e-07
3.9592207e-07
3.9592207e-07
3.9592207e-07
3.9592208e-07
3.9592208e-07
3.9592209e-07
3.9592209e-07
3.959221e-07
3.9592211e-07
3.9592209e-07
3.9592209e-07
3.9592209e-07
3.959221e-07
3.959221e-07
3.959221e-07
3.959221e-07
3.9592211e-07
3.9592211e-07
3.9592211e-07
3.9592212e-07
3.9592212e-07
3.9592213e-07
3.9592213e-07
3.9592212e-07
3.9592212e-07
3.9592212e-07
3.9592212e-07
3.9592212e-07
3.9592213e-07
3.9592213e-07
3.9592213e-07
3.9592214e-07
3.9592214e-07
3.9592214e-07
3.9592215e-07
3.9592215e-07
3.9592216e-07
3.9592214e-07
3.9592214e-07
3.9592214e-07
3.9592214e-07
3.9592215e-07
3.9592215e-07
3.9592215e-07
3.9592215e-07
3.9592216e-07
3.9592216e-07
3.9592216e-07
3.9592216e-07
3.9592217e-07
3.9592217e-07
3.9592216e-07
3.9592216e-07
3.9592216e-07
3.9592216e-07
3.9592216e-07
3.9592216e-07
3.9592217e-07
3.9592217e-07
3.9592217e-07
3.9592217e-07
3.9592218e-07
3.9592218e-07
3.9592218e-07
3.9592218e-07
3.9592218e-07
3.9592219e-07
3.9592219e-07
3.9592219e-07
3.9592219e-07
3.959222e-07
3.959222e-07
3.959222e-07
3.959222e-07
3.9592219e-07
3.9592219e-07
3.9592219e-07
3.9592219e-07
3.9592219e-07
3.9592217e-07
3.9592217e-07
3.9592218e-07
3.9592218e-07
3.9592218e-07
3.9592219e-07
3.9592219e-07
3.9592219e-07
3.9592219e-07
3.9592218e-07
3.9592218e-07
3.9592218e-07
3.9592218e-07
3.9592218e-07
3.9592215e-07
3.9592216e-07
3.9592216e-07
3.9592217e-07
3.9592217e-07
3.9592217e-07
3.9592217e-07
3.9592217e-07
3.9592217e-07
3.9592217e-07
3.9592217e-07
3.9592217e-07
3.9592216e-07
3.9592216e-07
3.9592213e-07
3.9592214e-07
3.9592214e-07
3.9592215e-07
3.9592215e-07
3.9592215e-07
3.9592216e-07
3.9592216e-07
3.9592216e-07
3.9592215e-07
3.9592215e-07
3.9592215e-07
3.9592214e-07
3.9592214e-07
3.9592211e-07
3.9592211e-07
3.9592212e-07
3.9592212e-07
3.9592213e-07
3.9592213e-07
3.9592213e-07
3.9592213e-07
3.9592213e-07
3.9592213e-07
3.9592213e-07
3.9592212e-07
3.9592212e-07
3.9592211e-07
3.9592207e-07
3.9592208e-07
3.9592208e-07
3.9592209e-07
3.959221e-07
3.959221e-07
3.959221e-07
3.959221e-07
3.959221e-07
3.959221e-07
3.9592209e-07
3.9592209e-07
3.9592208e-07
3.9592208e-07
3.9592201e-07
3.9592202e-07
3.9592203e-07
3.9592204e-07
3.9592205e-07
3.9592206e-07
3.9592206e-07
3.9592206e-07
3.9592206e-07
3.9592205e-07
3.9592205e-07
3.9592204e-07
3.9592203e-07
3.9592202e-07
3.9592193e-07
3.9592194e-07
3.9592196e-07
3.9592197e-07
3.9592199e-07
3.9592199e-07
3.9592199e-07
3.9592199e-07
3.9592199e-07
3.9592198e-07
3.9592198e-07
3.9592197e-07
3.9592195e-07
3.9592195e-07
3.959218e-07
3.9592182e-07
3.9592184e-07
3.9592186e-07
3.9592188e-07
3.9592189e-07
3.9592189e-07
3.9592189e-07
3.9592189e-07
3.9592188e-07
3.9592186e-07
3.9592185e-07
3.9592183e-07
3.9592182e-07
3.9592157e-07
3.9592161e-07
3.9592165e-07
3.959217e-07
3.9592175e-07
3.9592179e-07
3.9592181e-07
3.9592182e-07
3.959218e-07
3.9592175e-07
3.959217e-07
3.9592166e-07
3.9592164e-07
3.9592161e-07
3.9592108e-07
3.95921e-07
3.9592076e-07
3.9592019e-07
3.9591946e-07
3.9591882e-07
3.9591835e-07
3.9591817e-07
3.9591859e-07
3.9591939e-07
3.9592018e-07
3.9592067e-07
3.9592093e-07
3.9592105e-07
3.9593173e-07
3.9593743e-07
3.9594809e-07
3.9596686e-07
3.9598484e-07
3.9599768e-07
3.9600747e-07
3.9601131e-07
3.9600181e-07
3.9598529e-07
3.9596508e-07
3.9595048e-07
3.9594163e-07
3.9593602e-07
3.957028e-07
3.9558306e-07
3.9541425e-07
3.9516214e-07
3.9497222e-07
3.9485515e-07
3.9475272e-07
3.947181e-07
3.9481648e-07
3.9495322e-07
3.9517731e-07
3.9536457e-07
3.9549801e-07
3.956076e-07
4.1024171e-07
4.1063926e-07
4.107807e-07
4.1081173e-07
4.1080246e-07
4.10774e-07
4.1074449e-07
4.1071957e-07
4.1071005e-07
4.1073737e-07
4.1073923e-07
4.1060905e-07
4.1050529e-07
4.1015054e-07
3.9592218e-07
3.9592217e-07
3.9592215e-07
3.9592213e-07
3.959221e-07
3.9592206e-07
3.95922e-07
3.9592191e-07
3.9592177e-07
3.9592153e-07
3.959211e-07
3.9593221e-07
3.9577422e-07
4.1202642e-07
3.9592218e-07
3.9592216e-07
3.9592214e-07
3.9592212e-07
3.9592209e-07
3.9592205e-07
3.9592199e-07
3.959219e-07
3.9592175e-07
3.959215e-07
3.9592108e-07
3.959316e-07
3.9580365e-07
4.1223246e-07
3.9592217e-07
3.9592216e-07
3.9592214e-07
3.9592212e-07
3.9592208e-07
3.9592204e-07
3.9592198e-07
3.9592188e-07
3.9592173e-07
3.9592147e-07
3.9592104e-07
3.9593039e-07
3.9582571e-07
4.1225445e-07
3.9592217e-07
3.9592215e-07
3.9592214e-07
3.9592211e-07
3.9592208e-07
3.9592203e-07
3.9592197e-07
3.9592187e-07
3.9592171e-07
3.9592144e-07
3.9592099e-07
3.9592923e-07
3.9584113e-07
4.1224538e-07
3.9592217e-07
3.9592215e-07
3.9592213e-07
3.9592211e-07
3.9592207e-07
3.9592202e-07
3.9592196e-07
3.9592186e-07
3.959217e-07
3.9592142e-07
3.9592095e-07
3.9592823e-07
3.9585279e-07
4.1223957e-07
3.9592216e-07
3.9592215e-07
3.9592213e-07
3.959221e-07
3.9592207e-07
3.9592202e-07
3.9592195e-07
3.9592184e-07
3.9592168e-07
3.9592139e-07
3.9592091e-07
3.9592734e-07
3.9586302e-07
4.122432e-07
3.9592216e-07
3.9592215e-07
3.9592212e-07
3.959221e-07
3.9592206e-07
3.9592201e-07
3.9592194e-07
3.9592183e-07
3.9592167e-07
3.9592137e-07
3.9592088e-07
3.9592652e-07
3.9587155e-07
4.1224704e-07
3.9592216e-07
3.9592214e-07
3.9592212e-07
3.9592209e-07
3.9592206e-07
3.9592201e-07
3.9592193e-07
3.9592182e-07
3.9592165e-07
3.9592135e-07
3.9592084e-07
3.9592575e-07
3.9588063e-07
4.1225379e-07
3.9592216e-07
3.9592214e-07
3.9592212e-07
3.9592209e-07
3.9592205e-07
3.95922e-07
3.9592193e-07
3.9592182e-07
3.9592165e-07
3.9592134e-07
3.9592082e-07
3.9592498e-07
3.9588866e-07
4.1225844e-07
3.9592216e-07
3.9592214e-07
3.9592212e-07
3.9592209e-07
3.9592205e-07
3.95922e-07
3.9592192e-07
3.9592181e-07
3.9592163e-07
3.9592133e-07
3.9592078e-07
3.9592423e-07
3.9589631e-07
4.1226201e-07
3.9592215e-07
3.9592214e-07
3.9592211e-07
3.9592208e-07
3.9592205e-07
3.9592199e-07
3.9592192e-07
3.959218e-07
3.9592162e-07
3.9592131e-07
3.9592075e-07
3.9592353e-07
3.9590362e-07
4.1226438e-07
3.9592215e-07
3.9592213e-07
3.9592211e-07
3.9592208e-07
3.9592204e-07
3.9592199e-07
3.9592191e-07
3.959218e-07
3.9592161e-07
3.9592129e-07
3.9592072e-07
3.9592289e-07
3.9591084e-07
4.1226399e-07
3.9592215e-07
3.9592213e-07
3.9592211e-07
3.9592208e-07
3.9592204e-07
3.9592199e-07
3.9592191e-07
3.9592179e-07
3.9592161e-07
3.9592128e-07
3.959207e-07
3.9592224e-07
3.9591633e-07
4.1226637e-07
3.9592215e-07
3.9592213e-07
3.9592211e-07
3.9592208e-07
3.9592204e-07
3.9592198e-07
3.9592191e-07
3.9592179e-07
3.959216e-07
3.9592128e-07
3.9592066e-07
3.9592097e-07
3.9592115e-07
4.1222202e-07
3.9592215e-07
3.9592213e-07
3.9592211e-07
3.9592208e-07
3.9592203e-07
3.9592198e-07
3.959219e-07
3.9592178e-07
3.9592159e-07
3.9592126e-07
3.9592061e-07
3.959195e-07
3.9593881e-07
4.1258614e-07
3.9592215e-07
3.9592213e-07
3.959221e-07
3.9592207e-07
3.9592203e-07
3.9592197e-07
3.9592189e-07
3.9592177e-07
3.9592157e-07
3.9592123e-07
3.9592055e-07
3.9591856e-07
3.9594819e-07
4.1264403e-07
3.9592214e-07
3.9592212e-07
3.959221e-07
3.9592207e-07
3.9592202e-07
3.9592196e-07
3.9592188e-07
3.9592175e-07
3.9592155e-07
3.959212e-07
3.9592047e-07
3.9591732e-07
3.9595641e-07
4.1266208e-07
3.9592214e-07
3.9592212e-07
3.9592209e-07
3.9592206e-07
3.9592202e-07
3.9592196e-07
3.9592187e-07
3.9592174e-07
3.9592154e-07
3.9592118e-07
3.9592039e-07
3.9591589e-07
3.959644e-07
4.1270378e-07
)
;

boundaryField
{
    Side
    {
        type            empty;
    }
    Inlet
    {
        type            inletOutlet;
        inletValue      uniform 3.9592226e-07;
        value           nonuniform List<scalar> 
49
(
3.9592226e-07
3.9592226e-07
3.9592226e-07
3.9592226e-07
3.9592226e-07
3.9592226e-07
3.9592226e-07
3.9592226e-07
3.9592226e-07
3.9592226e-07
3.9592226e-07
3.9592226e-07
3.9592226e-07
3.9592226e-07
3.9592226e-07
3.9592226e-07
3.9592226e-07
3.9592226e-07
3.9592226e-07
3.9592226e-07
3.9592226e-07
3.9592226e-07
3.9592226e-07
3.9592226e-07
3.9592226e-07
3.9592226e-07
3.9592226e-07
3.9592226e-07
3.9592226e-07
3.9592226e-07
3.9592226e-07
3.9592226e-07
3.9592226e-07
3.9592226e-07
3.9592226e-07
3.9592226e-07
3.9592226e-07
3.9592226e-07
3.9592226e-07
3.9592226e-07
3.9592226e-07
3.9592226e-07
3.9592226e-07
3.9592226e-07
3.9592226e-07
3.9592226e-07
3.9592226e-07
3.9592226e-07
3.9592226e-07
)
;
    }
    Airfoil
    {
        type            nutUSpaldingWallFunction;
        value           nonuniform List<scalar> 
51
(
1.5435258e-05
1.5188923e-05
1.4964877e-05
1.4755061e-05
1.4563154e-05
1.5687614e-05
1.5734845e-05
1.5792094e-05
1.5860284e-05
1.5939403e-05
1.6029984e-05
1.6133069e-05
1.6249995e-05
1.6382634e-05
1.6533074e-05
1.6704076e-05
1.6898114e-05
1.711491e-05
1.7362173e-05
1.7838278e-05
1.776556e-05
1.7663778e-05
1.8026179e-05
1.8252362e-05
1.8334837e-05
1.8341819e-05
1.8361306e-05
1.823476e-05
1.7717416e-05
1.7399516e-05
1.756568e-05
1.7894112e-05
1.8057587e-05
1.7101848e-05
1.6839194e-05
1.6619183e-05
1.642858e-05
1.6263062e-05
1.6116516e-05
1.5987681e-05
1.5872442e-05
1.5770078e-05
1.5679157e-05
1.5598829e-05
1.5528288e-05
1.5466733e-05
1.5413967e-05
1.5215606e-05
1.5067352e-05
1.4932593e-05
1.4810729e-05
)
;
    }
    Outlet
    {
        type            zeroGradient;
    }
    Flap
    {
        type            nutUSpaldingWallFunction;
        value           nonuniform List<scalar> 0();
    }
    procBoundary0to1
    {
        type            processor;
        value           nonuniform List<scalar> 
58
(
3.9592226e-07
3.9592226e-07
3.9592226e-07
3.9592226e-07
3.9592226e-07
3.9592226e-07
3.9592226e-07
3.9592226e-07
3.9592226e-07
3.9592226e-07
3.9592226e-07
3.9592226e-07
3.9592225e-07
3.9592224e-07
3.9592221e-07
3.9592221e-07
3.9592224e-07
3.9592225e-07
3.9592226e-07
3.9592226e-07
3.9592226e-07
3.9592226e-07
3.9592226e-07
3.9592226e-07
3.9592226e-07
3.9592226e-07
3.9592226e-07
3.9592226e-07
3.9592226e-07
3.9592214e-07
3.9592212e-07
3.9592209e-07
3.9592206e-07
3.9592201e-07
3.9592195e-07
3.9592187e-07
3.9592173e-07
3.9592153e-07
3.9592117e-07
3.9592058e-07
3.9592058e-07
3.9592525e-07
3.9591213e-07
4.1303599e-07
3.9592214e-07
3.9592212e-07
3.9592209e-07
3.9592206e-07
3.9592201e-07
3.9592195e-07
3.9592187e-07
3.9592173e-07
3.9592153e-07
3.9592116e-07
3.9592031e-07
3.9591439e-07
3.9597127e-07
4.1266822e-07
)
;
    }
}


// ************************************************************************* //
