/*--------------------------------*- C++ -*----------------------------------*\
| =========                 |                                                 |
| \\      /  F ield         | OpenFOAM: The Open Source CFD Toolbox           |
|  \\    /   O peration     | Version:  2206                                  |
|   \\  /    A nd           | Website:  www.openfoam.com                      |
|    \\/     M anipulation  |                                                 |
\*---------------------------------------------------------------------------*/
FoamFile
{
    version     2.0;
    format      ascii;
    arch        "LSB;label=32;scalar=64";
    class       surfaceScalarField;
    location    "0.01";
    object      phi;
}
// * * * * * * * * * * * * * * * * * * * * * * * * * * * * * * * * * * * * * //

dimensions      [1 0 -1 0 0 0 0];

oriented        oriented;

internalField   nonuniform List<scalar> 
2713
(
0.19397622
-0.27084531
0.28430196
0.18051958
-0.27084531
0.28430195
0.16706294
-0.27084531
0.28430196
0.15360629
-0.27084531
0.28430195
0.14014965
-0.27084531
0.28430196
0.12669301
-0.27084531
0.28430195
0.11323636
-0.27084531
0.28430196
0.09977972
-0.27084531
0.28430196
0.086323077
-0.27084531
0.28430195
0.072866434
-0.27084531
0.28430196
0.059409791
-0.27084531
0.28430195
0.045953147
-0.27084531
0.28430196
0.032496504
-0.27084531
0.28430195
-0.27084531
0.28430195
0.019039861
0.3415983
-0.24693503
0.31768802
-0.24693502
0.29377773
-0.24693503
0.26986744
-0.24693502
0.24595716
-0.24693503
0.22204687
-0.24693502
0.19813659
-0.24693503
0.1742263
-0.24693502
0.15031601
-0.24693503
0.12640573
-0.24693503
0.10249544
-0.24693502
0.078585155
-0.24693503
0.054674868
-0.24693503
-0.24693503
0.030764582
0.47611848
-0.21349429
0.44267774
-0.21349429
0.409237
-0.21349429
0.37579626
-0.21349429
0.34235552
-0.21349429
0.30891478
-0.21349429
0.27547404
-0.21349429
0.2420333
-0.21349429
0.20859256
-0.21349429
0.17515182
-0.21349429
0.14171108
-0.21349429
0.10827034
-0.21349429
0.074829601
-0.21349429
-0.21349429
0.041388862
0.59237698
-0.17181395
0.55069665
-0.17181395
0.50901632
-0.17181395
0.46733599
-0.17181395
0.42565566
-0.17181395
0.38397532
-0.17181395
0.34229499
-0.17181395
0.30061466
-0.17181395
0.25893433
-0.17181395
0.217254
-0.17181395
0.17557367
-0.17181395
0.13389333
-0.17181395
0.092213003
-0.17181395
-0.17181395
0.050532671
0.68591451
-0.12350276
0.63760331
-0.12350276
0.58929212
-0.12350276
0.54098092
-0.12350276
0.49266972
-0.12350276
0.44435852
-0.12350276
0.39604732
-0.12350276
0.34773613
-0.12350276
0.29942493
-0.12350276
0.25111373
-0.12350276
0.20280253
-0.12350276
0.15449133
-0.12350276
0.10618014
-0.12350276
-0.12350276
0.057868939
0.75314325
-0.070425217
0.70006571
-0.070425217
0.64698817
-0.070425217
0.59391064
-0.070425217
0.5408331
-0.070425217
0.48775556
-0.070425217
0.43467802
-0.070425217
0.38160048
-0.070425217
0.32852294
-0.070425217
0.2754454
-0.070425217
0.22236786
-0.070425217
0.16929033
-0.070425217
0.11621279
-0.070425217
-0.070425217
0.063135248
0.79148452
-0.014629732
0.73568904
-0.014629732
0.67989355
-0.014629732
0.62409807
-0.014629732
0.56830258
-0.014629732
0.5125071
-0.014629732
0.45671162
-0.014629732
0.40091613
-0.014629732
0.34512065
-0.014629732
0.28932516
-0.014629732
0.23352968
-0.014629732
0.17773419
-0.014629732
0.12193871
-0.014629732
-0.014629732
0.066143224
0.79946767
0.041730452
0.74310748
0.041730452
0.6867473
0.041730452
0.63038711
0.041730452
0.57402693
0.041730452
0.51766674
0.041730452
0.46130656
0.041730452
0.40494638
0.041730452
0.34858619
0.041730452
0.29222601
0.041730452
0.23586582
0.041730452
0.17950564
0.041730452
0.12314546
0.041730452
0.041730452
0.066785272
0.77678648
0.096480302
0.72203663
0.096480303
0.66728678
0.096480302
0.61253693
0.096480302
0.55778708
0.096480303
0.50303723
0.096480302
0.44828738
0.096480302
0.39353753
0.096480302
0.33878768
0.096480302
0.28403783
0.096480302
0.22928798
0.096480302
0.17453813
0.096480302
0.11978828
0.096480302
0.096480302
0.065038428
0.72431095
0.1475069
0.67328436
0.1475069
0.62225776
0.1475069
0.57123116
0.1475069
0.52020456
0.1475069
0.46917796
0.1475069
0.41815136
0.1475069
0.36712476
0.1475069
0.31609817
0.1475069
0.26507157
0.1475069
0.21404497
0.1475069
0.16301837
0.1475069
0.11199177
0.1475069
0.1475069
0.060965173
0.64405389
0.19284095
0.59871984
0.19284095
0.55338579
0.19284095
0.50805173
0.19284095
0.46271768
0.19284095
0.41738363
0.19284095
0.37204958
0.19284095
0.32671552
0.19284095
0.28138147
0.19284095
0.23604742
0.19284095
0.19071337
0.19284095
0.14537931
0.19284095
0.10004526
0.19284095
0.19284095
0.054711209
0.53909371
0.23073276
0.5012019
0.23073276
0.4633101
0.23073276
0.42541829
0.23073276
0.38752649
0.23073276
0.34963468
0.23073276
0.31174288
0.23073276
0.27385107
0.23073276
0.23595927
0.23073276
0.19806746
0.23073276
0.16017565
0.23073276
0.12228385
0.23073276
0.084392043
0.23073276
0.23073276
0.046500238
0.41345636
0.25971971
0.3844694
0.25971971
0.35548245
0.25971971
0.3264955
0.25971971
0.29750854
0.25971971
0.26852159
0.25971971
0.23953464
0.25971971
0.21054768
0.25971971
0.18156073
0.25971971
0.15257378
0.25971971
0.12358682
0.25971971
0.094599871
0.25971971
0.065612917
0.25971971
0.25971971
0.036625964
0.27240292
0.27868348
0.25343915
0.27868348
0.23447538
0.27868348
0.21551161
0.27868348
0.19654784
0.27868348
0.17758407
0.27868348
0.1586203
0.27868348
0.13965653
0.27868348
0.12069276
0.27868348
0.10172899
0.27868348
0.082765216
0.27868348
0.063801446
0.27868348
0.044837676
0.27868348
0.27868348
0.025873906
-0.0037010575
0.2841013
-0.0035003978
0.28410129
-0.003299738
0.2841013
-0.0030990783
0.28410129
-0.0028984185
0.2841013
-0.0026977588
0.28410129
-0.002497099
0.2841013
-0.0022964393
0.2841013
-0.0020957795
0.28410129
-0.0018951198
0.2841013
-0.0016944601
0.28410129
-0.0014938003
0.2841013
-0.0012931406
0.28410129
0.2841013
-0.0010924808
-0.0037010575
0.28390064
-0.0035003978
0.28390063
-0.003299738
0.28390064
-0.0030990783
0.28390063
-0.0028984185
0.28390064
-0.0026977588
0.28390063
-0.002497099
0.28390064
-0.0022964393
0.28390064
-0.0020957795
0.28390063
-0.0018951198
0.28390064
-0.0016944601
0.28390063
-0.0014938003
0.28390064
-0.0012931406
0.28390064
0.28390064
-0.0010924808
-0.0037010575
0.28369998
-0.0035003978
0.28369998
-0.003299738
0.28369998
-0.0030990783
0.28369998
-0.0028984185
0.28369998
-0.0026977588
0.28369998
-0.002497099
0.28369998
-0.0022964393
0.28369998
-0.0020957795
0.28369998
-0.0018951198
0.28369998
-0.0016944601
0.28369998
-0.0014938003
0.28369998
-0.0012931406
0.28369998
0.28369998
-0.0010924808
-0.0037010575
0.28349932
-0.0035003978
0.28349932
-0.003299738
0.28349932
-0.0030990783
0.28349932
-0.0028984185
0.28349932
-0.0026977588
0.28349932
-0.002497099
0.28349932
-0.0022964393
0.28349932
-0.0020957795
0.28349932
-0.0018951198
0.28349932
-0.0016944601
0.28349932
-0.0014938003
0.28349932
-0.0012931406
0.28349932
0.28349932
-0.0010924808
-0.0037010575
0.28329866
-0.0035003978
0.28329866
-0.003299738
0.28329866
-0.0030990783
0.28329866
-0.0028984185
0.28329866
-0.0026977588
0.28329866
-0.002497099
0.28329866
-0.0022964393
0.28329866
-0.0020957795
0.28329866
-0.0018951198
0.28329866
-0.0016944601
0.28329866
-0.0014938003
0.28329866
-0.0012931406
0.28329866
0.28329866
-0.0010924808
-0.0037010575
0.283098
-0.0035003978
0.283098
-0.003299738
0.283098
-0.0030990783
0.283098
-0.0028984185
0.283098
-0.0026977588
0.283098
-0.002497099
0.283098
-0.0022964393
0.283098
-0.0020957795
0.283098
-0.0018951198
0.283098
-0.0016944601
0.283098
-0.0014938003
0.283098
-0.0012931406
0.283098
0.283098
-0.0010924808
-0.0037010575
0.28289734
-0.0035003978
0.28289734
-0.003299738
0.28289734
-0.0030990783
0.28289734
-0.0028984185
0.28289734
-0.0026977588
0.28289734
-0.002497099
0.28289734
-0.0022964393
0.28289734
-0.0020957795
0.28289734
-0.0018951198
0.28289734
-0.0016944601
0.28289734
-0.0014938003
0.28289734
-0.0012931406
0.28289734
0.28289734
-0.0010924808
-0.0037010575
0.28269668
-0.0035003978
0.28269668
-0.003299738
0.28269668
-0.0030990783
0.28269668
-0.0028984185
0.28269668
-0.0026977588
0.28269668
-0.002497099
0.28269668
-0.0022964393
0.28269668
-0.0020957795
0.28269668
-0.0018951198
0.28269668
-0.0016944601
0.28269668
-0.0014938003
0.28269668
-0.0012931406
0.28269668
0.28269668
-0.0010924808
-0.0037010575
0.28249602
-0.0035003978
0.28249602
-0.003299738
0.28249602
-0.0030990783
0.28249602
-0.0028984185
0.28249602
-0.0026977588
0.28249602
-0.002497099
0.28249602
-0.0022964393
0.28249602
-0.0020957795
0.28249602
-0.0018951198
0.28249602
-0.0016944601
0.28249602
-0.0014938003
0.28249602
-0.0012931406
0.28249602
0.28249602
-0.0010924808
-0.0037010575
0.28229536
-0.0035003978
0.28229536
-0.003299738
0.28229536
-0.0030990783
0.28229536
-0.0028984185
0.28229536
-0.0026977588
0.28229536
-0.002497099
0.28229536
-0.0022964393
0.28229536
-0.0020957795
0.28229536
-0.0018951198
0.28229536
-0.0016944601
0.28229536
-0.0014938003
0.28229536
-0.0012931406
0.28229536
0.28229536
-0.0010924808
-0.0037010575
0.2820947
-0.0035003978
0.2820947
-0.003299738
0.2820947
-0.0030990783
0.2820947
-0.0028984185
0.2820947
-0.0026977588
0.2820947
-0.002497099
0.2820947
-0.0022964393
0.2820947
-0.0020957795
0.2820947
-0.0018951198
0.2820947
-0.0016944601
0.2820947
-0.0014938003
0.2820947
-0.0012931406
0.2820947
0.2820947
-0.0010924808
-0.0037010575
0.28189404
-0.0035003978
0.28189404
-0.003299738
0.28189404
-0.0030990783
0.28189404
-0.0028984185
0.28189404
-0.0026977588
0.28189404
-0.002497099
0.28189404
-0.0022964393
0.28189404
-0.0020957795
0.28189404
-0.0018951198
0.28189404
-0.0016944601
0.28189404
-0.0014938003
0.28189404
-0.0012931406
0.28189404
0.28189404
-0.0010924808
-0.0037010575
0.28169338
-0.0035003978
0.28169338
-0.003299738
0.28169338
-0.0030990783
0.28169338
-0.0028984185
0.28169338
-0.0026977588
0.28169338
-0.002497099
0.28169338
-0.0022964393
0.28169338
-0.0020957795
0.28169338
-0.0018951198
0.28169338
-0.0016944601
0.28169338
-0.0014938003
0.28169338
-0.0012931406
0.28169338
0.28169338
-0.0010924808
-0.0037010575
0.28149272
-0.0035003978
0.28149272
-0.003299738
0.28149272
-0.0030990783
0.28149272
-0.0028984185
0.28149272
-0.0026977588
0.28149272
-0.002497099
0.28149272
-0.0022964393
0.28149272
-0.0020957795
0.28149272
-0.0018951198
0.28149272
-0.0016944601
0.28149272
-0.0014938003
0.28149272
-0.0012931406
0.28149272
0.28149272
-0.0010924808
-0.0015482441
0.28166756
-0.0017230846
0.28166756
-0.0018979251
0.28166756
-0.0020727657
0.28166756
-0.0022476053
0.28166756
-0.0024224458
0.28166756
-0.0025972855
0.28166756
-0.002772126
0.28166756
-0.0029469665
0.28166756
-0.0031218062
0.28166756
-0.0032966467
0.28166756
-0.0034714863
0.28166756
-0.0036463271
0.28166756
0.28166756
-0.0038211673
-0.001548245
0.2818424
-0.0017230855
0.2818424
-0.0018979252
0.2818424
-0.0020727648
0.2818424
-0.0022476053
0.2818424
-0.0024224458
0.2818424
-0.0025972863
0.2818424
-0.002772126
0.2818424
-0.0029469665
0.2818424
-0.0031218062
0.2818424
-0.0032966467
0.2818424
-0.0034714872
0.2818424
-0.003646327
0.2818424
0.2818424
-0.0038211672
-0.0015482441
-0.0017230846
-0.0018979243
-0.0020727657
-0.0022476053
-0.0024224458
-0.0025972855
-0.002772126
0.28201724
-0.0029469657
0.28201724
-0.003121807
0.28201724
-0.0032966467
0.28201724
-0.0034714872
0.28201724
-0.003646327
0.28201724
0.28201724
-0.0038211673
-0.002772126
-0.0029469665
-0.0031218062
-0.0032966467
-0.0034714863
-0.003646327
-0.0038211672
0.27888414
0.0037010575
0.2790848
0.0037010575
0.27928546
0.0037010575
0.27948612
0.0037010575
0.27968678
0.0037010575
0.27988744
0.0037010575
0.2800881
0.0037010575
0.28028876
0.0037010575
0.28048942
0.0037010575
0.28069008
0.0037010575
0.28089074
0.0037010575
0.2810914
0.0037010575
0.28129206
0.0037010575
0.0037010575
0.28149272
0.27888414
0.0035003978
0.2790848
0.0035003978
0.27928546
0.0035003978
0.27948612
0.0035003978
0.27968678
0.0035003978
0.27988744
0.0035003978
0.2800881
0.0035003978
0.28028876
0.0035003978
0.28048942
0.0035003978
0.28069008
0.0035003978
0.28089074
0.0035003978
0.2810914
0.0035003978
0.28129206
0.0035003978
0.0035003978
0.28149272
0.27888414
0.003299738
0.2790848
0.003299738
0.27928546
0.003299738
0.27948612
0.003299738
0.27968678
0.003299738
0.27988744
0.003299738
0.2800881
0.003299738
0.28028876
0.003299738
0.28048942
0.003299738
0.28069008
0.003299738
0.28089074
0.003299738
0.2810914
0.003299738
0.28129206
0.003299738
0.003299738
0.28149272
0.27888414
0.0030990783
0.2790848
0.0030990783
0.27928546
0.0030990783
0.27948612
0.0030990783
0.27968678
0.0030990783
0.27988744
0.0030990783
0.2800881
0.0030990783
0.28028876
0.0030990783
0.28048942
0.0030990783
0.28069008
0.0030990783
0.28089074
0.0030990783
0.2810914
0.0030990783
0.28129206
0.0030990783
0.0030990783
0.28149272
0.27888414
0.0028984185
0.2790848
0.0028984185
0.27928546
0.0028984185
0.27948612
0.0028984185
0.27968678
0.0028984185
0.27988744
0.0028984185
0.2800881
0.0028984185
0.28028876
0.0028984185
0.28048942
0.0028984185
0.28069008
0.0028984185
0.28089074
0.0028984185
0.2810914
0.0028984185
0.28129206
0.0028984185
0.0028984185
0.28149272
0.27888414
0.0026977588
0.2790848
0.0026977588
0.27928546
0.0026977588
0.27948612
0.0026977588
0.27968678
0.0026977588
0.27988744
0.0026977588
0.2800881
0.0026977588
0.28028876
0.0026977588
0.28048942
0.0026977588
0.28069008
0.0026977588
0.28089074
0.0026977588
0.2810914
0.0026977588
0.28129206
0.0026977588
0.0026977588
0.28149272
0.27888414
0.002497099
0.2790848
0.002497099
0.27928546
0.002497099
0.27948612
0.002497099
0.27968678
0.002497099
0.27988744
0.002497099
0.2800881
0.002497099
0.28028876
0.002497099
0.28048942
0.002497099
0.28069008
0.002497099
0.28089074
0.002497099
0.2810914
0.002497099
0.28129206
0.002497099
0.002497099
0.28149272
0.27888414
0.0022964393
0.2790848
0.0022964393
0.27928546
0.0022964393
0.27948612
0.0022964393
0.27968678
0.0022964393
0.27988744
0.0022964393
0.2800881
0.0022964393
0.28028876
0.0022964393
0.28048942
0.0022964393
0.28069008
0.0022964393
0.28089074
0.0022964393
0.2810914
0.0022964393
0.28129206
0.0022964393
0.0022964393
0.28149272
0.27888414
0.0020957795
0.2790848
0.0020957795
0.27928546
0.0020957795
0.27948612
0.0020957795
0.27968678
0.0020957795
0.27988744
0.0020957795
0.2800881
0.0020957795
0.28028876
0.0020957795
0.28048942
0.0020957795
0.28069008
0.0020957795
0.28089074
0.0020957795
0.2810914
0.0020957795
0.28129206
0.0020957795
0.0020957795
0.28149272
0.27888414
0.0018951198
0.2790848
0.0018951198
0.27928546
0.0018951198
0.27948612
0.0018951198
0.27968678
0.0018951198
0.27988744
0.0018951198
0.2800881
0.0018951198
0.28028876
0.0018951198
0.28048942
0.0018951198
0.28069008
0.0018951198
0.28089074
0.0018951198
0.2810914
0.0018951198
0.28129206
0.0018951198
0.0018951198
0.28149272
0.27888414
0.0016944601
0.2790848
0.0016944601
0.27928546
0.0016944601
0.27948612
0.0016944601
0.27968678
0.0016944601
0.27988744
0.0016944601
0.2800881
0.0016944601
0.28028876
0.0016944601
0.28048942
0.0016944601
0.28069008
0.0016944601
0.28089074
0.0016944601
0.2810914
0.0016944601
0.28129206
0.0016944601
0.0016944601
0.28149272
0.27888414
0.0014938003
0.2790848
0.0014938003
0.27928546
0.0014938003
0.27948612
0.0014938003
0.27968678
0.0014938003
0.27988744
0.0014938003
0.2800881
0.0014938003
0.28028876
0.0014938003
0.28048942
0.0014938003
0.28069008
0.0014938003
0.28089074
0.0014938003
0.2810914
0.0014938003
0.28129206
0.0014938003
0.0014938003
0.28149272
0.27888414
0.0012931406
0.2790848
0.0012931406
0.27928546
0.0012931406
0.27948612
0.0012931406
0.27968678
0.0012931406
0.27988744
0.0012931406
0.2800881
0.0012931406
0.28028876
0.0012931406
0.28048942
0.0012931406
0.28069008
0.0012931406
0.28089074
0.0012931406
0.2810914
0.0012931406
0.28129206
0.0012931406
0.0012931406
0.28149272
0.27888414
0.0010924808
0.2790848
0.0010924808
0.27928546
0.0010924808
0.27948612
0.0010924808
0.27968678
0.0010924808
0.27988744
0.0010924808
0.2800881
0.0010924808
0.28028876
0.0010924808
0.28048942
0.0010924808
0.28069008
0.0010924808
0.28089074
0.0010924808
0.2810914
0.0010924808
0.28129206
0.0010924808
0.28149272
0.0010924808
-0.28254176
0.0031724406
-0.0035221211
-0.28219208
0.0031724407
-0.0035221211
-0.2818424
0.0031724406
-0.0035221211
0.0031724407
-0.0035221211
-0.28254176
0.002822761
-0.28219208
0.0028227601
-0.2818424
0.0028227601
0.0028227601
-0.28254176
0.00247308
-0.28219208
0.00247308
-0.2818424
0.0024730799
0.00247308
-0.28254176
0.0021233989
-0.28219208
0.0021233998
-0.2818424
0.0021233998
0.0021233989
-0.28254176
0.0017737196
-0.28219208
0.0017737188
-0.2818424
0.0017737188
0.0017737196
-0.28254176
0.0014240386
-0.28219208
0.0014240386
-0.2818424
0.0014240386
0.0014240386
-0.28254176
0.0010743576
-0.28219208
0.0010743584
-0.2818424
0.0010743584
0.0010743584
-0.28254176
0.00072467825
-0.28219208
0.0007246774
-0.2818424
0.00072467825
0.00072467825
-0.28254176
0.00037499723
-0.28219208
0.00037499723
-0.2818424
0.00037499808
0.00037499723
-0.28254176
2.5317918e-05
-0.28219208
2.5317061e-05
-0.2818424
2.5317057e-05
2.5317061e-05
-0.28254176
-0.00032436311
-0.28219208
-0.00032436311
-0.2818424
-0.00032436397
-0.00032436311
-0.28254176
-0.00067404413
-0.28219208
-0.00067404328
-0.2818424
-0.00067404414
-0.00067404328
-0.28254176
-0.0010237234
-0.28219208
-0.0010237243
-0.2818424
-0.0010237243
-0.0010237243
-0.28254176
-0.28219208
-0.2818424
-0.0031194553
0.01954126
-0.019943926
-0.0027167894
0.01954126
-0.019943926
-0.0023141236
0.01954126
-0.019943926
-0.0019114578
0.01954126
-0.019943926
-0.001508792
0.01954126
-0.019943926
-0.001106126
0.01954126
-0.019943926
-0.00070346027
0.01954126
-0.019943926
-0.00030079449
0.01954126
-0.019943926
0.00010187131
0.01954126
-0.019943926
0.00050452961
0.01954126
-0.019943926
0.00090673987
0.019541273
-0.019943936
0.0012661337
0.019543763
-0.01994638
0.0015518611
0.01954855
-0.019951262
0.020174869
-0.020672339
-0.0031398437
0.019158983
-0.0027575662
0.019158983
-0.0023752888
0.019158983
-0.0019930113
0.019158983
-0.0016107339
0.019158983
-0.0012284565
0.019158983
-0.00084617897
0.019158983
-0.00046390148
0.019158983
-8.1624137e-05
0.019158983
0.00030064482
0.019158983
0.00068244385
0.019158995
0.0010238495
0.019161345
0.0012989651
0.019165454
0.019701285
-0.003163324
0.018800186
-0.002804527
0.018800186
-0.0024457299
0.018800186
-0.0020869329
0.018800186
-0.0017281358
0.018800186
-0.0013693387
0.018800186
-0.0010105418
0.018800186
-0.00065174474
0.018800186
-0.00029294768
0.018800186
6.5838792e-05
0.018800186
0.00042415085
0.018800197
0.00074576546
0.018802352
0.0010114725
0.018805404
0.019243426
-0.0031848141
-0.0028475072
-0.0025102003
-0.0021728934
-0.0018355865
-0.0014982796
-0.0011609726
-0.0008236657
-0.00048635886
-0.00014906142
0.00018775955
0.00049215157
0.018464838
0.00075222537
0.018466716
0.018813502
0.00024297443
0.00050024606
-0.020731829
-0.0010982882
-0.020798316
-0.0011737947
-0.020873764
-0.0012477882
-0.02096031
-0.0013260128
-0.021059191
-0.0014114914
-0.021169391
-0.0015072836
-0.021286668
-0.0016131359
-0.021416005
-0.0017172358
-0.02156578
-0.0018246786
-0.021742309
-0.0019491281
-0.02194757
-0.0021027195
-0.022178534
-0.0022915746
-0.022426846
-0.0025169049
-0.0028027606
-0.022606101
-0.019960537
-0.0011550865
-0.019978487
-0.0012270031
-0.02000265
-0.0012973266
-0.020033412
-0.0013713977
-0.020071262
-0.001452017
-0.020116937
-0.0015418976
-0.020171171
-0.0016405964
-0.020233783
-0.0017372474
-0.020304906
-0.0018367312
-0.020385645
-0.0019515797
-0.020477865
-0.0020925672
-0.020583271
-0.0022646369
-0.020700469
-0.0024678858
-0.0027231168
-0.020823666
-0.019953584
-0.0011707731
-0.01996701
-0.0012378695
-0.019986392
-0.0013034381
-0.020012052
-0.0013724547
-0.020044536
-0.0014475122
-0.020084605
-0.0015310807
-0.020132982
-0.0016226579
-0.020189495
-0.0017122437
-0.020254393
-0.001804442
-0.020328972
-0.0019108741
-0.020415414
-0.0020414639
-0.020516269
-0.0022006848
-0.02063389
-0.0023882818
-0.0026216657
-0.020772079
-0.019951074
-0.0011638629
-0.019964319
-0.0012248638
-0.019983526
-0.001284474
-0.020009007
-0.0013472174
-0.020041312
-0.0014154513
-0.020081213
-0.0014914201
-0.020129439
-0.0015746668
-0.020185808
-0.0016561014
-0.020250558
-0.0017399098
-0.020324982
-0.0018366561
-0.020411276
-0.0019553598
-0.020512039
-0.0021000843
-0.020629844
-0.0022705894
-0.0024827002
-0.020768829
-0.019951065
-0.0011567302
-0.019964304
-0.001211631
-0.019983504
-0.0012652805
-0.020008978
-0.0013217495
-0.020041276
-0.0013831601
-0.020081171
-0.0014515321
-0.02012939
-0.001526454
-0.020185753
-0.0015997451
-0.020250496
-0.0016751726
-0.020324915
-0.0017622441
-0.020411203
-0.0018690774
-0.020511964
-0.0019993292
-0.020629775
-0.002152783
-0.0023436807
-0.020768797
-0.019951065
-0.0011495914
-0.019964304
-0.0011983922
-0.019983504
-0.0012460806
-0.020008978
-0.0012962753
-0.020041276
-0.0013508624
-0.02008117
-0.0014116376
-0.02012939
-0.0014782348
-0.020185752
-0.0015433824
-0.020250496
-0.0016104291
-0.020324914
-0.001687826
-0.020411202
-0.001782789
-0.020511963
-0.0018985683
-0.020629775
-0.0020349716
-0.0022046585
-0.020768797
-0.019951065
-0.0011424526
-0.019964304
-0.0011851533
-0.019983504
-0.0012268805
-0.020008978
-0.001270801
-0.020041276
-0.0013185648
-0.02008117
-0.0013717429
-0.02012939
-0.0014300156
-0.020185752
-0.0014870197
-0.020250496
-0.0015456856
-0.020324914
-0.0016134078
-0.020411202
-0.0016965004
-0.020511963
-0.0017978073
-0.020629775
-0.0019171603
-0.0020656363
-0.020768797
-0.019951065
-0.0011353137
-0.019964304
-0.0011719144
-0.019983504
-0.0012076806
-0.020008978
-0.0012453267
-0.020041276
-0.001286267
-0.02008117
-0.0013318484
-0.02012939
-0.0013817964
-0.020185752
-0.0014306571
-0.020250496
-0.001480942
-0.020324914
-0.0015389898
-0.020411202
-0.0016102119
-0.020511963
-0.0016970464
-0.020629775
-0.0017993489
-0.0019266142
-0.020768797
-0.019951065
-0.001128175
-0.019964304
-0.0011586754
-0.019983504
-0.0011884807
-0.020008978
-0.0012198524
-0.020041276
-0.0012539693
-0.02008117
-0.0012919538
-0.02012939
-0.0013335771
-0.020185752
-0.0013742943
-0.020250496
-0.0014161985
-0.020324914
-0.0014645716
-0.020411202
-0.0015239234
-0.020511963
-0.0015962854
-0.020629775
-0.0016815376
-0.0017875919
-0.020768797
-0.019951065
-0.0011210361
-0.019964304
-0.0011454366
-0.019983504
-0.0011692806
-0.020008978
-0.001194378
-0.020041276
-0.0012216716
-0.02008117
-0.0012520592
-0.02012939
-0.0012853578
-0.020185752
-0.0013179316
-0.020250496
-0.001351455
-0.020324914
-0.0013901534
-0.020411202
-0.0014376349
-0.020511963
-0.0014955246
-0.020629775
-0.0015637262
-0.0016485697
-0.020768797
-0.019951065
-0.0011138973
-0.019964304
-0.0011321976
-0.019983504
-0.0011500807
-0.020008978
-0.0011689037
-0.020041276
-0.001189374
-0.02008117
-0.0012121646
-0.02012939
-0.0012371385
-0.020185752
-0.0012615689
-0.020250496
-0.0012867114
-0.020324914
-0.0013157353
-0.020411202
-0.0013513463
-0.020511963
-0.0013947637
-0.020629775
-0.0014459149
-0.0015095474
-0.020768797
-0.019951065
-0.0011067584
-0.019964304
-0.0011189587
-0.019983504
-0.0011308808
-0.020008978
-0.0011434294
-0.020041276
-0.0011570762
-0.02008117
-0.00117227
-0.02012939
-0.0011889194
-0.020185752
-0.0012052063
-0.020250496
-0.0012219678
-0.020324914
-0.0012413172
-0.020411202
-0.0012650578
-0.020511963
-0.0012940026
-0.020629775
-0.0013281035
-0.0013705253
-0.020768797
-0.019951065
-0.0010996197
-0.019964304
-0.0011057197
-0.019983504
-0.0011116808
-0.020008978
-0.0011179551
-0.020041276
-0.0011247786
-0.02008117
-0.0011323754
-0.02012939
-0.0011407001
-0.020185752
-0.0011488435
-0.020250496
-0.0011572244
-0.020324914
-0.001166899
-0.020411202
-0.0011787694
-0.020511963
-0.0011932418
-0.020629775
-0.0012102921
-0.001231503
-0.020768797
-0.019951065
-0.019964304
-0.019983504
-0.020008978
-0.020041276
-0.02008117
-0.02012939
-0.020185752
-0.020250496
-0.020324914
-0.020411202
-0.020511963
-0.020629775
-0.020768797
-0.020001021
0.017861321
0.02117956
-0.018043177
0.028806738
-0.01541765
0.038763335
-0.01231169
0.047426711
-0.0088281349
0.054385384
-0.0050609515
0.059368064
-0.0011294137
0.062211686
0.0028313241
0.062824534
0.0067213336
0.061148418
0.010462279
0.057224227
0.013904848
0.05126864
0.016861898
0.043543188
0.01917698
0.034310882
0.024282089
-0.020001021
0.016682782
0.02117956
-0.018043177
0.026848894
-0.01541765
0.036137808
-0.01231169
0.044320751
-0.0088281349
0.050901829
-0.0050609515
0.055600881
-0.0011294137
0.058280148
0.0028313241
0.058863796
0.0067213335
0.057258409
0.010462279
0.053483282
0.013904848
0.047826071
0.016861898
0.040586139
0.01917698
0.031995799
0.022690272
-0.020001021
0.015504242
0.02117956
-0.018043177
0.02489105
-0.01541765
0.033512281
-0.01231169
0.041214791
-0.0088281349
0.047418274
-0.0050609515
0.051833697
-0.0011294137
0.054348611
0.0028313241
0.054903059
0.0067213336
0.053368399
0.010462279
0.049742336
0.013904848
0.044383502
0.016861898
0.037629089
0.01917698
0.029680717
0.021098456
-0.020001021
0.014325702
0.02117956
-0.018043177
0.022933206
-0.01541765
0.030886755
-0.01231169
0.038108831
-0.0088281349
0.043934719
-0.0050609515
0.048066514
-0.0011294137
0.050417073
0.0028313241
0.050942321
0.0067213335
0.04947839
0.010462279
0.04600139
0.013904848
0.040940933
0.016861898
0.03467204
0.01917698
0.027365635
0.019506639
-0.020001021
0.013147163
0.02117956
-0.018043177
0.020975362
-0.01541765
0.028261228
-0.01231169
0.035002871
-0.0088281349
0.040451164
-0.0050609515
0.044299331
-0.0011294137
0.046485535
0.0028313241
0.046981583
0.0067213336
0.045588381
0.010462279
0.042260444
0.013904848
0.037498364
0.016861898
0.03171499
0.01917698
0.025050552
0.017914822
-0.020001021
0.011968623
0.02117956
-0.018043177
0.019017518
-0.01541765
0.025635701
-0.01231169
0.03189691
-0.0088281349
0.036967609
-0.0050609515
0.040532147
-0.0011294137
0.042553997
0.0028313241
0.043020845
0.0067213335
0.041698371
0.010462279
0.038519498
0.013904848
0.034055795
0.016861898
0.028757941
0.01917698
0.02273547
0.016323006
-0.020001021
0.010790083
0.02117956
-0.018043177
0.017059674
-0.01541765
0.023010175
-0.01231169
0.02879095
-0.0088281349
0.033484054
-0.0050609515
0.036764964
-0.0011294137
0.038622459
0.0028313241
0.039060107
0.0067213335
0.037808362
0.010462279
0.034778552
0.013904848
0.030613226
0.016861898
0.025800891
0.01917698
0.020420388
0.014731189
-0.020001021
0.0096115439
0.02117956
-0.018043177
0.01510183
-0.01541765
0.020384648
-0.01231169
0.02568499
-0.0088281349
0.030000499
-0.0050609515
0.03299778
-0.0011294137
0.034690921
0.0028313241
0.035099369
0.0067213335
0.033918352
0.010462279
0.031037606
0.013904848
0.027170657
0.016861898
0.022843841
0.01917698
0.018105306
0.013139372
-0.020001021
0.0084330042
0.02117956
-0.018043177
0.013143986
-0.01541765
0.017759122
-0.01231169
0.022579032
-0.0088281349
0.026516947
-0.0050609515
0.029230601
-0.0011294137
0.030759389
0.0028313241
0.031138638
0.0067213335
0.030028348
0.010462279
0.027296663
0.013904848
0.023728089
0.016861898
0.019886792
0.01917698
0.015790223
0.011547556
-0.020001021
0.0072544615
0.02117956
-0.018043177
0.011186135
-0.01541765
0.015133572
-0.012311691
0.019473015
-0.0088281365
0.023033279
-0.0050609526
0.025463246
-0.0011294139
0.026827641
0.0028313247
0.027177675
0.0067213345
0.026138145
0.01046228
0.023555599
0.013904849
0.020285462
0.016861898
0.016929715
0.01917698
0.013475131
0.0099557344
-0.020001043
0.0060759212
0.021179597
-0.018043192
0.009228531
-0.015417644
0.012508845
-0.01231165
0.016369126
-0.0088280787
0.019553556
-0.0050609142
0.021701552
-0.0011294072
0.022902613
0.002831308
0.023223852
0.0067213123
0.022254164
0.010462272
0.019818488
0.013904855
0.016844901
0.016861912
0.013973648
0.019176998
0.011160502
0.0083640943
-0.020003618
0.0048610324
0.021182328
-0.01804631
0.0072257692
-0.015421585
0.0098191116
-0.012316266
0.013158437
-0.0088324346
0.01591998
-0.005063678
0.017746502
-0.0011300249
0.018761691
0.0028328624
0.019044572
0.00672444
0.018165842
0.010465822
0.015933044
0.013908257
0.013306273
0.01686502
0.010949535
0.019179826
0.0087931801
0.0067272596
-0.020059182
0.0036053906
0.021230518
-0.018106645
0.0052414465
-0.015457388
0.0073134817
-0.012312516
0.010517712
-0.0088084642
0.013272845
-0.0050491939
0.01509819
-0.0011361363
0.01612363
0.0028245707
0.016426612
0.0067425883
0.015457983
0.010520416
0.013009281
0.013980184
0.010299721
0.016933934
0.0081769748
0.019236403
0.0065291613
0.0051144794
-0.021808323
0.022588286
-0.020374502
-0.018371751
-0.015286386
-0.011202718
-0.0065250426
-0.0014932352
0.0037738247
0.0088534455
0.013135908
0.016519496
0.019212839
0.021247834
-0.00087517929
0.020962259
-0.00065787767
0.020962259
-0.00044057613
0.020962259
-0.0002232745
0.020962259
-5.9729632e-06
0.020962259
0.00021132858
0.020962259
0.00042863011
0.020962259
0.00064593165
0.020962259
0.00086323327
0.020962259
0.001080532
0.020962259
0.0012976611
0.020962325
0.0014853606
0.020965589
0.0016228748
0.021020552
0.022165176
-0.00090029174
0.02077007
-0.00070810265
0.02077007
-0.00051591356
0.02077007
-0.00032372447
0.02077007
-0.00013153529
0.02077007
6.0653882e-05
0.02077007
0.00025284297
0.02077007
0.00044503206
0.02077007
0.00063722113
0.02077007
0.00082940522
0.02077007
0.0010213726
0.020770138
0.0011858347
0.02077329
0.0013025964
0.020823852
0.021770443
-0.00091785355
0.020595442
-0.00074322626
0.020595442
-0.00056859889
0.020595442
-0.00039397161
0.020595442
-0.00021934441
0.020595442
-4.4717132e-05
0.020595442
0.00012991024
0.020595442
0.00030453752
0.020595442
0.00047916477
0.020595442
0.00065378651
0.020595443
0.00082818111
0.020595504
0.00097809236
0.020598353
0.0010835299
0.020641734
0.021439357
-0.00093181951
0.020434781
-0.0007711582
0.020434781
-0.00061049689
0.020434781
-0.00044983557
0.020434781
-0.00028917426
0.020434781
-0.00012851295
0.020434781
3.214828e-05
0.020434781
0.00019280968
0.020434781
0.00035347096
0.020434781
0.00051412689
0.020434781
0.00067455933
0.020434835
0.00081309649
0.020437398
0.00091107398
0.020473893
0.021153294
-0.00094321834
0.020285519
-0.00079395577
0.020285518
-0.00064469337
0.020285519
-0.00049543079
0.020285518
-0.0003461683