/*--------------------------------*- C++ -*----------------------------------*\
| =========                 |                                                 |
| \\      /  F ield         | OpenFOAM: The Open Source CFD Toolbox           |
|  \\    /   O peration     | Version:  2206                                  |
|   \\  /    A nd           | Website:  www.openfoam.com                      |
|    \\/     M anipulation  |                                                 |
\*---------------------------------------------------------------------------*/
FoamFile
{
    version     2.0;
    format      ascii;
    arch        "LSB;label=32;scalar=64";
    class       volVectorField;
    location    "0.01";
    object      U;
}
// * * * * * * * * * * * * * * * * * * * * * * * * * * * * * * * * * * * * * //

dimensions      [0 1 -1 0 0 0 0];

internalField   nonuniform List<vector> 
1396
(
(0.85671779 0.043699275 0)
(0.85671779 0.043699275 -1.8434585e-21)
(0.85671779 0.043699275 2.8927931e-21)
(0.85671779 0.043699275 1.9627363e-22)
(0.85671779 0.043699275 -1.5025105e-21)
(0.85671779 0.043699275 0)
(0.85671779 0.043699275 0)
(0.85671779 0.043699275 -2.9844568e-22)
(0.85671779 0.043699275 0)
(0.85671779 0.043699275 -4.0345742e-22)
(0.85671779 0.043699275 4.8959184e-22)
(0.85671779 0.043699275 1.2449741e-21)
(0.85671779 0.043699275 -2.7768273e-21)
(0.85671779 0.043699275 1.6170942e-21)
(0.85671779 0.043699275 5.3099211e-21)
(0.85671779 0.043699275 -2.3462139e-21)
(0.85671779 0.043699275 3.2543772e-21)
(0.85671779 0.043699275 -1.5701778e-21)
(0.85671779 0.043699275 4.2928438e-22)
(0.85671779 0.043699275 -3.7888939e-21)
(0.85671779 0.043699275 2.1125903e-21)
(0.85671779 0.043699275 0)
(0.85671779 0.043699275 0)
(0.85671779 0.043699275 1.6137645e-21)
(0.85671779 0.043699275 -9.791306e-22)
(0.85671779 0.043699275 2.8946588e-33)
(0.85671779 0.043699275 1.2814681e-21)
(0.85671779 0.043699275 3.5739353e-21)
(0.85671779 0.043699275 -2.4987855e-21)
(0.85671779 0.043699275 2.6813828e-21)
(0.85671779 0.043699275 -3.6159628e-22)
(0.85671779 0.043699275 3.1403396e-21)
(0.85671779 0.043699275 -3.8635312e-21)
(0.85671779 0.043699275 -1.8944282e-21)
(0.85671779 0.043699275 -5.2814063e-22)
(0.85671779 0.043699275 2.3874681e-21)
(0.85671779 0.043699275 0)
(0.85671779 0.043699275 9.5258592e-34)
(0.85671779 0.043699275 0)
(0.85671779 0.043699275 -6.224054e-22)
(0.85671779 0.043699275 -8.5424102e-22)
(0.85671779 0.043699275 -2.5524451e-21)
(0.85671779 0.043699275 -2.8111359e-21)
(0.85671779 0.043699275 -3.351728e-22)
(0.85671779 0.043699275 -3.6159586e-22)
(0.85671779 0.043699275 0)
(0.85671779 0.043699275 0)
(0.85671779 0.043699275 -1.8944177e-21)
(0.85671779 0.043699275 2.6406829e-21)
(0.85671779 0.043699275 0)
(0.85671779 0.043699275 0)
(0.85671779 0.043699275 -1.6136867e-21)
(0.85671779 0.043699275 -9.790668e-22)
(0.85671779 0.043699275 2.4895329e-21)
(0.85671779 0.043699275 0)
(0.85671779 0.043699275 2.722354e-21)
(0.85671779 0.043699275 -2.1864443e-21)
(0.85671779 0.043699275 3.3517347e-21)
(0.85671779 0.043699275 3.2543675e-21)
(0.85671779 0.043699275 -1.5701674e-21)
(0.85671779 0.043699275 -1.7171187e-21)
(0.85671779 0.043699275 0)
(0.85671779 0.043699275 0)
(0.85671779 0.043699275 0)
(0.85671779 0.043699275 1.3722858e-21)
(0.85671779 0.043699275 1.5753003e-33)
(0.85671779 0.043699275 -9.7905636e-22)
(0.85671779 0.043699275 5.1270212e-34)
(0.85671779 0.043699275 -2.1354344e-21)
(0.85671779 0.043699275 -2.0416739e-21)
(0.85671779 0.043699275 -3.1235059e-22)
(0.85671779 0.043699275 1.0055249e-21)
(0.85671779 0.043699275 -1.6271909e-21)
(0.85671779 0.043699275 0)
(0.85671779 0.043699275 8.5856307e-22)
(0.85671779 0.043699275 -1.4813074e-33)
(0.85671779 0.043699275 1.9654479e-34)
(0.85671779 0.043699275 -1.1937229e-21)
(0.85671779 0.043699275 0)
(0.85671779 0.043699275 4.0342029e-22)
(0.85671779 0.043699275 -9.7905992e-22)
(0.85671779 0.043699275 -9.3356309e-22)
(0.85671779 0.043699275 1.2812642e-21)
(0.85671779 0.043699275 1.3611179e-21)
(0.85671779 0.043699275 6.2470771e-22)
(0.85671779 0.043699275 -6.7035461e-22)
(0.85671779 0.043699275 1.8080033e-22)
(0.85671779 0.043699275 -3.9254668e-22)
(0.85671779 0.043699275 8.5857037e-22)
(0.85671779 0.043699275 -4.7361046e-22)
(0.85671779 0.043699275 4.0294127e-27)
(0.85671779 0.043699275 0)
(0.85671779 0.043699275 0)
(0.85671779 0.043699275 4.0342615e-22)
(0.85671779 0.043699275 -1.2238461e-22)
(0.85671779 0.043699275 1.555972e-22)
(0.85671779 0.043699275 1.067751e-22)
(0.85671779 0.043699275 -1.5313475e-21)
(0.85671779 0.043699275 -1.561789e-22)
(0.85671779 0.043699275 1.6758888e-22)
(0.85671779 0.043699275 0)
(0.85671779 0.043699275 -5.888211e-22)
(0.85671779 0.043699275 1.0732152e-21)
(0.85671779 0.043699275 -9.4722325e-22)
(0.85671779 0.043699275 -2.6407638e-22)
(0.85671779 0.043699275 -2.9843508e-22)
(0.85671779 0.043699275 0)
(0.85671779 0.043699275 0)
(0.85671779 0.043699275 0)
(0.85671779 0.043699275 -1.5559854e-22)
(0.85671779 0.043699275 -5.3388208e-22)
(0.85671779 0.043699275 1.2336147e-21)
(0.85671779 0.043699275 -1.5617543e-22)
(0.85671779 0.043699275 -5.0276305e-22)
(0.85671779 0.043699275 -1.4463943e-21)
(0.85671779 0.043699275 1.3739054e-21)
(0.85671779 0.043699275 2.1464133e-22)
(0.85671779 0.043699275 0)
(0.85671779 0.043699275 2.6407002e-22)
(0.85671779 0.043699275 8.9529677e-22)
(0.85671779 0.043699275 -1.3723003e-21)
(0.85671779 0.043699275 1.6136946e-21)
(0.85671779 0.043699275 -9.7907064e-22)
(0.85671779 0.043699275 0)
(0.85671779 0.043699275 8.5419485e-22)
(0.85671779 0.043699275 -1.2760956e-21)
(0.85671779 0.043699275 2.8111368e-21)
(0.85671779 0.043699275 -2.3462101e-21)
(0.85671779 0.043699275 3.6159586e-22)
(0.85671779 0.043699275 -1.1776244e-21)
(0.85671779 0.043699275 1.7171178e-21)
(0.85671779 0.043699275 0)
(0.85671779 0.043699275 0)
(0.85671779 0.043699275 0)
(0.85671779 0.043699275 6.8614486e-22)
(0.85671779 0.043699275 -1.6136821e-21)
(0.85671779 0.043699275 9.7906292e-22)
(0.85671779 0.043699275 0)
(0.85671779 0.043699275 0)
(0.85671779 0.043699275 -1.7014454e-22)
(0.85671779 0.043699275 0)
(0.85671779 0.043699275 0)
(0.85671779 0.043699275 -3.6159425e-22)
(0.85671779 0.043699275 -3.1403192e-21)
(0.85671779 0.043699275 5.1513362e-21)
(0.85671779 0.043699275 -6.5837073e-33)
(0.85671779 0.043699275 2.1265663e-33)
(0.85671779 0.043699275 -2.9842985e-21)
(0.85671779 0.043699275 0)
(0.85671779 0.043699275 0)
(0.85671779 0.043699275 0)
(0.85671779 0.043699275 0)
(0.85671779 0.043699275 -1.7084072e-21)
(0.85671779 0.043699275 0)
(0.85671779 0.043699275 2.4987664e-21)
(0.85671779 0.043699275 0)
(0.85671779 0.043699275 0)
(0.85671779 0.043699275 -3.1403176e-21)
(0.85671779 0.043699275 3.4342269e-21)
(0.85671779 0.043699275 1.894416e-21)
(0.85671779 0.043699275 -2.1125499e-21)
(0.85671779 0.043699275 5.9686377e-22)
(0.85671779 0.043699275 0)
(0.85671779 0.043699275 0)
(0.85671779 0.043699275 -9.7908909e-22)
(0.85671779 0.043699275 1.2448102e-21)
(0.85671779 0.043699275 3.4169748e-21)
(0.85671779 0.043699275 -1.7016487e-22)
(0.85671779 0.043699275 -4.9975229e-21)
(0.85671779 0.043699275 2.6813608e-21)
(0.85671779 0.043699275 0)
(0.85671779 0.043699275 0)
(0.85671779 0.043699275 0)
(0.85671779 0.043699275 -1.8944293e-21)
(0.85671779 0.043699275 2.1125712e-21)
(0.85671779 0.043699275 1.1937442e-21)
(0.85671779 0.043699275 -1.3723309e-21)
(0.85671779 0.043699275 8.068759e-22)
(0.85671779 0.043699275 -1.9582473e-21)
(0.85671779 0.043699275 1.2448726e-21)
(0.85671779 0.043699275 -1.7086173e-21)
(0.85671779 0.043699275 -2.5528118e-21)
(0.85671779 0.043699275 -2.49863e-21)
(0.85671779 0.043699275 1.5081861e-21)
(0.85671779 0.043699275 5.5782547e-34)
(0.85671779 0.043699275 -1.7663403e-21)
(0.85671779 0.043699275 -2.146289e-22)
(0.85671779 0.043699275 -9.4716506e-22)
(0.85671779 0.043699275 1.0562304e-21)
(0.85671779 0.043699275 2.9842047e-22)
(0.85671779 0.043699275 -6.8612978e-22)
(0.85671779 0.043699275 1.2102511e-21)
(0.85671779 0.043699275 0)
(0.85671779 0.043699275 -6.2240451e-22)
(0.85671779 0.043699275 1.067832e-21)
(0.85671779 0.043699275 9.3598544e-22)
(0.85671779 0.043699275 0)
(0.85671779 0.043699275 1.8553674e-21)
(0.85671779 0.043699275 0)
(0.85671779 0.043699275 -2.0879372e-21)
(0.85671779 0.043699275 -2.2275485e-21)
(0.85671779 0.043699275 0)
(0.85671779 0.043699275 0)
(0.85671779 0.043699275 2.7865149e-21)
(0.85671779 0.043699275 0)
(0.85671779 0.043699275 3.3463169e-21)
(0.85671779 0.043699275 0)
(0.85671779 0.043699275 -4.1875904e-21)
(0.85671779 0.043699275 4.789657e-21)
(0.85671779 0.043699275 -5.5939168e-21)
(0.85671779 0.043699275 0)
(0.85671779 0.043699275 0)
(0.85671779 0.043699275 1.9647949e-21)
(0.85671779 0.043699275 0)
(0.85671779 0.043699275 0)
(0.85671779 0.043699275 2.3871694e-21)
(0.85671779 0.043699275 0)
(0.85671779 0.043699275 0)
(0.85671779 0.043699275 0)
(0.85671779 0.043699275 0)
(0.85671779 0.043699275 3.7199864e-21)
(0.85671779 0.043699275 -4.1875944e-21)
(0.85671779 0.043699275 -4.7896623e-21)
(0.85671779 0.043699275 5.593924e-21)
(0.85671779 0.043699275 0)
(0.85671779 0.043699275 0)
(0.85671779 0.043699275 -1.9647958e-21)
(0.85671779 0.043699275 0)
(0.85671779 0.043699275 2.2275508e-21)
(0.85671779 0.043699275 -2.3871707e-21)
(0.85671779 0.043699275 2.5714321e-21)
(0.85671779 0.043699275 0)
(0.85671779 0.043699275 -3.040871e-21)
(0.85671779 0.043699275 0)
(0.85671779 0.043699275 -3.7199896e-21)
(0.85671779 0.043699275 4.1875985e-21)
(0.85671779 0.043699275 9.5793352e-21)
(0.85671779 0.043699275 -5.5939313e-21)
(0.85671779 0.043699275 0)
(0.85671779 0.043699275 -9.2768489e-22)
(0.85671779 0.043699275 0)
(0.85671779 0.043699275 -1.0439701e-21)
(0.85671779 0.043699275 -2.2275519e-21)
(0.85671779 0.043699275 -1.193586e-21)
(0.85671779 0.043699275 -1.2857168e-21)
(0.85671779 0.043699275 0)
(0.85671779 0.043699275 3.0408731e-21)
(0.85671779 0.043699275 0)
(0.85671779 0.043699275 1.8599964e-21)
(0.85671779 0.043699275 0)
(0.85671779 0.043699275 -2.3948365e-21)
(0.85671779 0.043699275 0)
(0.85671779 0.043699275 0)
(0.85671779 0.043699275 2.6551791e-33)
(0.85671779 0.043699275 -9.8239878e-22)
(0.85671779 0.043699275 2.0879412e-21)
(0.85671779 0.043699275 -1.1137765e-21)
(0.85671779 0.043699275 1.1935867e-21)
(0.85671779 0.043699275 1.6495419e-33)
(0.85671779 0.043699275 0)
(0.85671779 0.043699275 1.5204376e-21)
(0.85671779 0.043699275 0)
(0.85671779 0.043699275 -3.719996e-21)
(0.85671779 0.043699275 0)
(0.85671779 0.043699275 -4.7896782e-21)
(0.85671779 0.043699275 -2.7969729e-21)
(0.85671779 0.043699275 8.7874504e-22)
(0.85671779 0.043699275 1.8553714e-21)
(0.85671779 0.043699275 1.9647985e-21)
(0.85671779 0.043699275 -1.0439711e-21)
(0.85671779 0.043699275 2.2275542e-21)
(0.85671779 0.043699275 -1.1935873e-21)
(0.85671779 0.043699275 2.1504295e-33)
(0.85671779 0.043699275 0)
(0.85671779 0.043699275 -1.5204387e-21)
(0.85671779 0.043699275 1.6731649e-21)
(0.85671779 0.043699275 1.8599996e-21)
(0.85671779 0.043699275 2.0938053e-21)
(0.85671779 0.043699275 2.3948418e-21)
(0.85671779 0.043699275 2.7969765e-21)
(0.85671779 0.043699275 -8.787454e-22)
(0.85671779 0.043699275 -8.8986683e-35)
(0.85671779 0.043699275 -9.8239967e-22)
(0.85671779 0.043699275 0)
(0.85671779 0.043699275 -1.1137777e-21)
(0.85671779 0.043699275 2.387176e-21)
(0.85671779 0.043699275 -1.2857191e-21)
(0.85671779 0.043699275 -1.3932629e-21)
(0.85671779 0.043699275 0)
(0.85671779 0.043699275 -1.6731662e-21)
(0.85671779 0.043699275 -1.8600012e-21)
(0.85671779 0.043699275 -3.1405253e-33)
(0.85671779 0.043699275 0)
(0.85671779 0.043699275 -2.7969801e-21)
(0.85671779 0.043699275 0)
(0.85671779 0.043699275 -7.1539556e-34)
(0.85671779 0.043699275 0)
(0.85671779 0.043699275 0)
(0.85671779 0.043699275 0)
(0.85671779 0.043699275 -2.3871773e-21)
(0.85671779 0.043699275 0)
(0.85671779 0.043699275 1.3932638e-21)
(0.85671779 0.043699275 1.5204408e-21)
(0.85671779 0.043699275 1.6731675e-21)
(0.85671779 0.043699275 1.8600028e-21)
(0.85671779 0.043699275 -4.1876188e-21)
(0.85671779 0.043699275 0)
(0.85671779 0.043699275 2.7969837e-21)
(0.85671779 0.043699275 0)
(0.85671779 0.043699275 -4.6384344e-22)
(0.85671779 0.043699275 0)
(0.85671779 0.043699275 -5.2198631e-22)
(0.85671779 0.043699275 0)
(0.85671779 0.043699275 1.1935893e-21)
(0.85671779 0.043699275 0)
(0.85671779 0.043699275 6.9663233e-22)
(0.85671779 0.043699275 -1.5204419e-21)
(0.85671779 0.043699275 -1.6731688e-21)
(0.85671779 0.043699275 0)
(0.85671779 0.043699275 2.0938114e-21)
(0.85671779 0.043699275 -1.1974249e-21)
(0.85671779 0.043699275 0)
(0.85671779 0.043699275 0)
(0.85671779 0.043699275 -4.6384364e-22)
(0.85671779 0.043699275 0)
(0.85671779 0.043699275 1.0439731e-21)
(0.85671779 0.043699275 -5.568897e-22)
(0.85671779 0.043699275 0)
(0.85671779 0.043699275 -1.2857214e-21)
(0.85671779 0.043699275 -6.9663278e-22)
(0.85671779 0.043699275 0)
(0.85671779 0.043699275 0)
(0.85671779 0.043699275 0)
(0.85671779 0.043699275 0)
(0.85671779 0.043699275 2.3948524e-21)
(0.85671779 0.043699275 0)
(0.85671779 0.043699275 0)
(0.85671779 0.043699275 0)
(0.85671779 0.043699275 0)
(0.85671779 0.043699275 -1.0439736e-21)
(0.85671779 0.043699275 -8.2798998e-34)
(0.85671779 0.043699275 5.9679531e-22)
(0.85671779 0.043699275 1.2857222e-21)
(0.85671779 0.043699275 0)
(0.85671779 0.043699275 7.6022202e-22)
(0.85671779 0.043699275 -8.3658569e-22)
(0.85671779 0.043699275 9.3000381e-22)
(0.85671779 0.043699275 -1.0469077e-21)
(0.85671779 0.043699275 -1.1974275e-21)
(0.85671779 0.043699275 0)
(0.85671779 0.043699275 2.196868e-22)
(0.85671779 0.043699275 2.3192202e-22)
(0.85671779 0.043699275 2.4560048e-22)
(0.85671779 0.043699275 5.2198707e-22)
(0.85671779 0.043699275 5.5689028e-22)
(0.85671779 0.043699275 -5.9679564e-22)
(0.85671779 0.043699275 -3.2143074e-22)
(0.85671779 0.043699275 0)
(0.85671779 0.043699275 -7.6022255e-22)
(0.85671779 0.043699275 4.1829317e-22)
(0.85671779 0.043699275 -9.3000461e-22)
(0.85671779 0.043699275 1.5703631e-21)
(0.85671779 0.043699275 0)
(0.85671779 0.043699275 6.9924955e-22)
(0.85671779 0.043699275 -2.1968689e-22)
(0.85671779 0.043699275 -2.3192212e-22)
(0.85671779 0.043699275 -3.6840088e-22)
(0.85671779 0.043699275 -1.3049683e-22)
(0.85671779 0.043699275 1.3922264e-22)
(0.85671779 0.043699275 0)
(0.85671779 0.043699275 4.8214639e-22)
(0.85671779 0.043699275 -1.7415853e-22)
(0.85671779 0.043699275 0)
(0.85671779 0.043699275 4.1829349e-22)
(0.85671779 0.043699275 0)
(0.85671779 0.043699275 -7.8518232e-22)
(0.85671779 0.043699275 0)
(0.85671779 0.043699275 -1.0488757e-21)
(0.85671779 0.043699275 0)
(0.85671779 0.043699275 0)
(0.85671779 0.043699275 1.2280035e-22)
(0.85671779 0.043699275 1.3049689e-22)
(0.85671779 0.043699275 -1.3922271e-22)
(0.85671779 0.043699275 0)
(0.85671779 0.043699275 -1.6071556e-22)
(0.85671779 0.043699275 1.7415864e-22)
(0.85671779 0.043699275 0)
(0.85671779 0.043699275 0)
(0.85671779 0.043699275 0)
(0.85671779 0.043699275 2.6172769e-22)
(0.85671779 0.043699275 0)
(0.85671779 0.043699275 3.4962568e-22)
(0.85671779 0.043699275 0)
(0.85671779 0.043699275 0)
(0.85671779 0.043699275 0)
(0.85671779 0.043699275 0)
(0.85671779 0.043699275 0)
(0.85671779 0.043699275 0)
(0.85671779 0.043699275 0)
(0.85671779 0.043699275 9.4883861e-24)
(0.85671779 0.043699275 1.5173482e-35)
(0.85671779 0.043699275 -9.4883675e-24)
(0.85671779 0.043699275 0)
(0.85671779 0.043699275 0)
(0.85671779 0.043699275 0)
(0.85671779 0.043699275 1.8976661e-23)
(0.85671779 0.043699275 0)
(0.85671779 0.043699275 -2.3706385e-24)
(0.85671779 0.043699275 2.3706362e-24)
(0.85671779 0.043699275 4.7412677e-24)
(0.85671779 0.043699275 4.741263e-24)
(0.85671779 0.043699275 -9.4825168e-24)
(0.85671779 0.043699275 0)
(0.85671779 0.043699275 0)
(0.85671779 0.043699275 0)
(0.85671779 0.043699275 0)
(0.85671779 0.043699275 0)
(0.85671779 0.043699275 1.8964922e-23)
(0.85671779 0.043699275 -3.7929807e-23)
(0.85671779 0.043699275 1.8964885e-23)
(0.85671779 0.043699275 -1.1845853e-24)
(0.85671779 0.043699275 1.1845842e-24)
(0.85671779 0.043699275 0)
(0.85671779 0.043699275 0)
(0.85671779 0.043699275 0)
(0.85671779 0.043699275 0)
(0.85671779 0.043699275 0)
(0.85671779 0.043699275 9.4766177e-24)
(0.85671779 0.043699275 -9.4766085e-24)
(0.85671779 0.043699275 0)
(0.85671779 0.043699275 0)
(0.85671779 0.043699275 0)
(0.85671779 0.043699275 0)
(0.85671779 0.043699275 1.8953124e-23)
(0.85671779 0.043699275 9.4707445e-24)
(0.85671779 0.043699275 9.4095409e-36)
(0.85671779 0.043699275 -9.470726e-24)
(0.85671779 0.043699275 0)
(0.85671779 0.043699275 0)
(0.85671779 0.043699275 0)
(0.85671779 0.043699275 0)
(0.85671779 0.043699275 0)
(0.85671779 0.043699275 0)
(0.85671779 0.043699275 0)
(0.85671779 0.043699275 0)
(0.85671779 0.043699275 0)
(0.85671779 0.043699275 -8.7875111e-22)
(0.85671779 0.043699275 8.7875076e-22)
(0.85671779 0.043699275 0)
(0.85671779 0.043699275 0)
(0.85671779 0.043699275 0)
(0.85671779 0.043699275 0)
(0.85671779 0.043699275 -2.1968724e-22)
(0.85671779 0.043699275 2.1968715e-22)
(0.85671779 0.043699275 0)
(0.85671779 0.043699275 -1.8553889e-21)
(0.85671779 0.043699275 0)
(0.85671779 0.043699275 0)
(0.85671779 0.043699275 9.2769326e-22)
(0.85671779 0.043699275 -2.8196831e-33)
(0.85671779 0.043699275 -1.8553849e-21)
(0.85671779 0.043699275 -2.3997721e-33)
(0.85671779 0.043699275 -1.5566583e-33)
(0.85671779 0.043699275 4.6384563e-22)
(0.85671779 0.043699275 4.6384543e-22)
(0.85671779 0.043699275 0)
(0.85671779 0.043699275 -2.3192252e-22)
(0.85671779 0.043699275 2.3192242e-22)
(0.85671779 0.043699275 0)
(0.85671779 0.043699275 0)
(0.85671779 0.043699275 -1.9648172e-21)
(0.85671779 0.043699275 1.9648163e-21)
(0.85671779 0.043699275 0)
(0.85671779 0.043699275 9.8240727e-22)
(0.85671779 0.043699275 -1.9648136e-21)
(0.85671779 0.043699275 9.8240637e-22)
(0.85671779 0.043699275 0)
(0.85671779 0.043699275 0)
(0.85671779 0.043699275 0)
(0.85671779 0.043699275 0)
(0.85671779 0.043699275 -2.4560104e-22)
(0.85671779 0.043699275 3.6840139e-22)
(0.85671779 0.043699275 -1.2280041e-22)
(0.85671779 0.043699275 2.0879644e-21)
(0.85671779 0.043699275 0)
(0.85671779 0.043699275 0)
(0.85671779 0.043699275 1.0439807e-21)
(0.85671779 0.043699275 -2.0879604e-21)
(0.85671779 0.043699275 1.0439797e-21)
(0.85671779 0.043699275 0)
(0.85671779 0.043699275 0)
(0.85671779 0.043699275 5.2198909e-22)
(0.85671779 0.043699275 -1.0439777e-21)
(0.85671779 0.043699275 5.2198858e-22)
(0.85671779 0.043699275 0)
(0.85671779 0.043699275 1.3049702e-22)
(0.85671779 0.043699275 -1.3049696e-22)
(0.85671779 0.043699275 2.2275795e-21)
(0.85671779 0.043699275 0)
(0.85671779 0.043699275 -2.2275772e-21)
(0.85671779 0.043699275 2.227576e-21)
(0.85671779 0.043699275 1.1137874e-21)
(0.85671779 0.043699275 -2.2275737e-21)
(0.85671779 0.043699275 1.1137863e-21)
(0.85671779 0.043699275 0)
(0.85671779 0.043699275 0)
(0.85671779 0.043699275 5.5689229e-22)
(0.85671779 0.043699275 1.1844899e-33)
(0.85671779 0.043699275 -5.5689171e-22)
(0.85671779 0.043699275 0)
(0.85671779 0.043699275 0)
(0.85671779 0.043699275 0)
(0.85671779 0.043699275 -2.3872023e-21)
(0.85671779 0.043699275 2.387201e-21)
(0.85671779 0.043699275 0)
(0.85671779 0.043699275 0)
(0.85671779 0.043699275 1.1935985e-21)
(0.85671779 0.043699275 -2.3871957e-21)
(0.85671779 0.043699275 2.3871944e-21)
(0.85671779 0.043699275 -1.1935965e-21)
(0.85671779 0.043699275 0)
(0.85671779 0.043699275 0)
(0.85671779 0.043699275 0)
(0.85671779 0.043699275 0)
(0.85671779 0.043699275 0)
(0.85671779 0.043699275 0)
(0.85671779 0.043699275 0)
(0.85671779 0.043699275 -2.5714673e-21)
(0.85671779 0.043699275 1.2857329e-21)
(0.85671779 0.043699275 -1.2651484e-33)
(0.85671779 0.043699275 -8.2934761e-35)
(0.85671779 0.043699275 1.2857306e-21)
(0.85671779 0.043699275 0)
(0.85671779 0.043699275 0)
(0.85671779 0.043699275 1.2857283e-21)
(0.85671779 0.043699275 -1.2857275e-21)
(0.85671779 0.043699275 3.2143169e-22)
(0.85671779 0.043699275 -4.8214725e-22)
(0.85671779 0.043699275 1.6071566e-22)
(0.85671779 0.043699275 -2.7865634e-21)
(0.85671779 0.043699275 0)
(0.85671779 0.043699275 0)
(0.85671779 0.043699275 0)
(0.85671779 0.043699275 1.3932781e-21)
(0.85671779 0.043699275 -1.3932772e-21)
(0.85671779 0.043699275 1.3932763e-21)
(0.85671779 0.043699275 -1.3932754e-21)
(0.85671779 0.043699275 0)
(0.85671779 0.043699275 0)
(0.85671779 0.043699275 0)
(0.85671779 0.043699275 0)
(0.85671779 0.043699275 1.7415887e-22)
(0.85671779 0.043699275 -1.7415876e-22)
(0.85671779 0.043699275 0)
(0.85671779 0.043699275 0)
(0.85671779 0.043699275 3.0409202e-21)
(0.85671779 0.043699275 -3.040918e-21)
(0.85671779 0.043699275 -1.5204579e-21)
(0.85671779 0.043699275 1.5204569e-21)
(0.85671779 0.043699275 0)
(0.85671779 0.043699275 0)
(0.85671779 0.043699275 0)
(0.85671779 0.043699275 0)
(0.85671779 0.043699275 -7.6022576e-22)
(0.85671779 0.043699275 7.6022523e-22)
(0.85671779 0.043699275 0)
(0.85671779 0.043699275 0)
(0.85671779 0.043699275 -3.3463868e-21)
(0.85671779 0.043699275 0)
(0.85671779 0.043699275 0)
(0.85671779 0.043699275 0)
(0.85671779 0.043699275 0)
(0.85671779 0.043699275 -1.6731869e-21)
(0.85671779 0.043699275 1.6731856e-21)
(0.85671779 0.043699275 -1.6731843e-21)
(0.85671779 0.043699275 1.673183e-21)
(0.85671779 0.043699275 0)
(0.85671779 0.043699275 8.3659023e-22)
(0.85671779 0.043699275 -4.1829479e-22)
(0.85671779 0.043699275 -4.1829447e-22)
(0.85671779 0.043699275 0)
(0.85671779 0.043699275 0)
(0.85671779 0.043699275 -3.7200665e-21)
(0.85671779 0.043699275 7.4401265e-21)
(0.85671779 0.043699275 -5.5800901e-21)
(0.85671779 0.043699275 3.7200569e-21)
(0.85671779 0.043699275 -1.8600268e-21)
(0.85671779 0.043699275 1.8600252e-21)
(0.85671779 0.043699275 -1.8600236e-21)
(0.85671779 0.043699275 0)
(0.85671779 0.043699275 0)
(0.85671779 0.043699275 -9.3000942e-22)
(0.85671779 0.043699275 9.3000862e-22)
(0.85671779 0.043699275 0)
(0.85671779 0.043699275 0)
(0.85671779 0.043699275 4.1876999e-21)
(0.85671779 0.043699275 4.1876958e-21)
(0.85671779 0.043699275 -4.1876918e-21)
(0.85671779 0.043699275 0)
(0.85671779 0.043699275 0)
(0.85671779 0.043699275 -2.0938398e-21)
(0.85671779 0.043699275 4.0959926e-34)
(0.85671779 0.043699275 4.1876715e-21)
(0.85671779 0.043699275 -2.0938337e-21)
(0.85671779 0.043699275 0)
(0.85671779 0.043699275 1.0469148e-21)
(0.85671779 0.043699275 -1.5703707e-21)
(0.85671779 0.043699275 7.851846e-22)
(0.85671779 0.043699275 -2.6172795e-22)
(0.85671779 0.043699275 -4.7898003e-21)
(0.85671779 0.043699275 4.789795e-21)
(0.85671779 0.043699275 -4.7897897e-21)
(0.85671779 0.043699275 -2.3948922e-21)
(0.85671779 0.043699275 4.7897791e-21)
(0.85671779 0.043699275 -2.3948869e-21)
(0.85671779 0.043699275 -2.3948842e-21)
(0.85671779 0.043699275 2.3948816e-21)
(0.85671779 0.043699275 1.1974395e-21)
(0.85671779 0.043699275 -2.3948763e-21)
(0.85671779 0.043699275 1.1974368e-21)
(0.85671779 0.043699275 0)
(0.85671779 0.043699275 0)
(0.85671779 0.043699275 0)
(0.85671779 0.043699275 5.5941123e-21)
(0.85671779 0.043699275 -5.594105e-21)
(0.85671779 0.043699275 5.5940978e-21)
(0.85671779 0.043699275 0)
(0.85671779 0.043699275 2.7970417e-21)
(0.85671779 0.043699275 -2.797038e-21)
(0.85671779 0.043699275 0)
(0.85671779 0.043699275 0)
(0.85671779 0.043699275 0)
(0.85671779 0.043699275 0)
(0.85671779 0.043699275 0)
(0.85671779 0.043699275 -6.9925408e-22)
(0.85671779 0.043699275 1.0488798e-21)
(0.85671779 0.043699275 -3.4962613e-22)
(0.85671779 0.043699275 0)
(0.85671779 0.043699275 0)
(0.85671779 0.043699275 0)
(0.85671779 0.043699275 3.7941624e-23)
(0.85671779 0.043699275 0)
(0.85671779 0.043699275 0)
(0.85671779 0.043699275 0)
(0.85671779 0.043699275 0)
(0.85671779 0.043699275 -3.7800989e-23)
(0.85671779 0.043699275 0)
(0.85671779 0.043699275 -3.7894729e-23)
(0.85671779 0.043699275 0)
(0.85671779 0.043699275 3.7801063e-23)
(0.85671779 0.043699275 3.7847875e-23)
(0.85671779 0.043699275 7.5789605e-23)
(0.85671779 0.043699275 0)
(0.85671779 0.043699275 0)
(0.85671779 0.043699275 -3.7847949e-23)
(0.85671779 0.043699275 -3.7894877e-23)
(0.85671779 0.043699275 0)
(0.85671779 0.043699275 -1.8900605e-23)
(0.85671779 0.043699275 -1.8924011e-23)
(0.85671779 0.043699275 0)
(0.85671779 0.043699275 -1.8970998e-23)
(0.85671779 0.043699275 1.8900642e-23)
(0.85671779 0.043699275 1.8924048e-23)
(0.85671779 0.043699275 0)
(0.85671779 0.043699275 1.8971035e-23)
(0.85671779 0.043699275 0)
(0.85671779 0.043699275 0)
(0.85671779 0.043699275 -1.894755e-23)
(0.85671779 0.043699275 0)
(0.85671779 0.043699275 0)
(0.85671779 0.043699275 0)
(0.85671779 0.043699275 3.7895173e-23)
(0.85671779 0.043699275 0)
(0.85671779 0.043699275 0)
(0.85671779 0.043699275 -9.4620796e-24)
(0.85671779 0.043699275 -1.8947624e-23)
(0.85671779 0.043699275 -9.4855733e-24)
(0.85671779 0.043699275 0)
(0.85671779 0.043699275 9.4620809e-24)
(0.85671779 0.043699275 0)
(0.85671779 0.043699275 1.8482086e-35)
(0.85671779 0.043699275 0)
(0.85671779 0.043699275 0)
(0.85671779 0.043699275 0)
(0.85671779 0.043699275 9.4855574e-24)
(0.85671779 0.043699275 0)
(0.85671779 0.043699275 0)
(0.85671779 0.043699275 2.3684444e-24)
(0.85671779 0.043699275 0)
(0.85671779 0.043699275 0)
(0.85671779 0.043699275 0)
(0.85671779 0.043699275 -2.3684397e-24)
(0.85671779 0.043699275 0)
(0.85671779 0.043699275 -6.1016538e-22)
(0.85671779 0.043699275 5.843699e-22)
(0.85671779 0.043699275 -5.578387e-22)
(0.85671779 0.043699275 2.4758525e-22)
(0.85671779 0.043699275 1.2208286e-35)
(0.85671779 0.043699275 -2.5496252e-22)
(0.85671779 0.043699275 -7.3948144e-23)
(0.85671779 0.043699275 0)
(0.85671779 0.043699274 -7.6253957e-23)
(0.85671779 0.043699227 0)
(0.85671786 0.043690735 -1.1805294e-22)
(0.85671696 0.043617083 -6.0003128e-23)
(0.85656241 0.038235493 1.0359907e-22)
(0.85723273 0.038307288 -8.2159552e-23)
(0.85671779 0.043699275 6.9004858e-23)
(0.85671779 0.043699275 -6.9987932e-22)
(0.85671779 0.043699275 5.6799539e-22)
(0.85671779 0.043699275 7.204058e-23)
(0.85671779 0.043699275 -1.4622545e-22)
(0.85671779 0.043699275 0)
(0.85671779 0.043699275 3.7677848e-22)
(0.85671779 0.043699275 -1.5305918e-22)
(0.85671779 0.043699274 -2.3322192e-22)
(0.85671779 0.043699222 1.5797684e-22)
(0.85671797 0.043690673 -7.6688411e-27)
(0.85671863 0.043619819 1.6320516e-22)
(0.85665648 0.038728671 -1.6600783e-22)
(0.8573739 0.038839194 -8.567337e-23)
(0.85671779 0.043699275 -7.0176359e-22)
(0.85671779 0.043699275 1.2813752e-21)
(0.85671779 0.043699275 -7.2228233e-22)
(0.85671779 0.043699275 0)
(0.85671779 0.043699275 1.9841652e-35)
(0.85671779 0.043699275 -4.5324806e-22)
(0.85671779 0.043699275 1.5342861e-22)
(0.85671779 0.043699275 -4.6754561e-22)
(0.85671779 0.043699274 4.7503806e-22)
(0.85671779 0.043699219 0)
(0.85671806 0.043690897 0)
(0.8567198 0.043626876 0)
(0.85672792 0.039393332 1.6923224e-22)
(0.85753567 0.039523356 4.3485393e-23)
(0.85671779 0.043699275 1.4260594e-22)
(0.85671779 0.043699275 0)
(0.85671779 0.043699275 2.8949466e-35)
(0.85671779 0.043699275 2.980459e-22)
(0.85671779 0.043699275 -4.5387672e-22)
(0.85671779 0.043699275 7.6815857e-22)
(0.85671779 0.043699275 -5.8556604e-36)
(0.85671779 0.043699275 -3.1706929e-22)
(0.85671779 0.043699274 4.8331609e-22)
(0.85671779 0.043699217 0)
(0.85671812 0.043691282 -1.3885373e-26)
(0.85672044 0.043636159 1.6932609e-22)
(0.85677716 0.040096219 4.3702343e-23)
(0.85757662 0.04023661 -5.4643207e-23)
(0.8567188 0.04364801 1.7221508e-22)
(0.85681094 0.040833307 -8.8617588e-23)
(0.85768109 0.041002085 6.6357614e-23)
(0.85721773 0.037753429 -1.1928662e-22)
(0.85722229 0.037363239 -2.8025222e-22)
(0.8571772 0.036982152 1.6031017e-22)
(0.85718377 0.036586797 -7.7593138e-23)
(0.85720042 0.036167794 7.1393035e-22)
(0.85717556 0.035732947 1.5528545e-22)
(0.85706498 0.035313608 -7.7709446e-22)
(0.85696908 0.034915232 0)
(0.85701129 0.034467912 -1.4821464e-22)
(0.85716343 0.033919365 -1.5248259e-22)
(0.85731017 0.033273091 1.2098839e-21)
(0.85729434 0.032598152 -2.380904e-21)
(0.85683269 0.032063805 5.963487e-22)
(0.85563243 0.031785113 -5.6072999e-22)
(0.85642606 0.037901547 7.6718918e-23)
(0.85637133 0.037557419 2.2548767e-22)
(0.85630431 0.037229316 -1.4824381e-22)
(0.85623265 0.036893408 -4.4011051e-22)
(0.85614933 0.036540879 5.8373232e-22)
(0.85605155 0.036171555 -2.9613006e-22)
(0.85594298 0.035805649 1.498107e-22)
(0.85583217 0.03546848 -1.0021617e-21)
(0.85570966 0.035127683 1.4769927e-22)
(0.85555718 0.034739931 1.1222825e-21)
(0.85535766 0.034284114 -9.7030116e-22)
(0.85509918 0.033772372 2.1874208e-21)
(0.85477827 0.033280685 -7.929071e-22)
(0.85439271 0.033117755 1.557697e-23)
(0.8567146 0.043618112 7.0359151e-23)
(0.85671476 0.043613413 1.4020158e-22)
(0.85671401 0.043610826 -4.8852981e-22)
(0.85671333 0.043608575 8.3320385e-22)
(0.85671257 0.043606668 -6.9041711e-22)
(0.85671166 0.043605209 -4.1144423e-22)
(0.85671067 0.043604415 -6.808279e-22)
(0.85670982 0.043604358 -1.3515512e-22)
(0.85670913 0.043604833 9.3698698e-22)
(0.85670843 0.043605823 0)
(0.85670759 0.04360774 -1.0214213e-25)
(0.85670641 0.043611665 -1.2935593e-22)
(0.85670429 0.043620705 0)
(0.85670205 0.043640277 2.509142e-22)
(0.85671748 0.043691251 -1.3296373e-22)
(0.85671743 0.043690861 6.6240505e-23)
(0.85671737 0.043690545 6.5969988e-23)
(0.8567173 0.043690245 -6.5654745e-23)
(0.85671723 0.043689957 -3.9174383e-22)
(0.85671715 0.043689697 1.0382626e-21)
(0.85671707 0.043689502 -3.8664334e-22)
(0.85671699 0.043689371 -1.1511192e-21)
(0.85671691 0.043689256 2.2829546e-21)
(0.85671681 0.043689128 -1.0052044e-21)
(0.85671669 0.043688989 -1.243504e-22)
(0.85671653 0.043688883 1.2285977e-21)
(0.85671638 0.043689024 -9.6966513e-22)
(0.85671631 0.043690184 0)
(0.85671779 0.04369923 3.1501151e-23)
(0.85671779 0.043699229 -3.1393475e-23)
(0.85671779 0.043699228 -1.876116e-22)
(0.85671779 0.043699229 7.4704598e-22)
(0.85671779 0.043699229 -6.1934792e-23)
(0.85671779 0.04369923 -9.236471e-22)
(0.85671779 0.043699232 6.1175867e-22)
(0.85671779 0.043699234 -8.5030827e-22)
(0.85671779 0.043699236 8.4360484e-22)
(0.85671779 0.043699239 0)
(0.85671779 0.043699242 9.4632118e-22)
(0.85671779 0.043699248 -1.0527895e-21)
(0.85671779 0.043699256 0)
(0.85671779 0.043699271 -2.2769837e-22)
(0.85671779 0.043699274 2.9935606e-23)
(0.85671779 0.043699274 -8.9513265e-23)