/*--------------------------------*- C++ -*----------------------------------*\
| =========                 |                                                 |
| \\      /  F ield         | OpenFOAM: The Open Source CFD Toolbox           |
|  \\    /   O peration     | Version:  2206                                  |
|   \\  /    A nd           | Website:  www.openfoam.com                      |
|    \\/     M anipulation  |                                                 |
\*---------------------------------------------------------------------------*/
FoamFile
{
    version     2.0;
    format      ascii;
    arch        "LSB;label=32;scalar=64";
    class       volVectorField;
    location    "0.01";
    object      U;
}
// * * * * * * * * * * * * * * * * * * * * * * * * * * * * * * * * * * * * * //

dimensions      [0 1 -1 0 0 0 0];

internalField   nonuniform List<vector> 
1396
(
(0.85671779 0.043699275 0)
(0.85671779 0.043699275 0)
(0.85671779 0.043699275 2.4406846e-21)
(0.85671779 0.043699275 -2.4408383e-21)
(0.85671779 0.043699275 0)
(0.85671779 0.043699275 -1.2205729e-21)
(0.85671779 0.043699275 1.2206498e-21)
(0.85671779 0.043699275 0)
(0.85671779 0.043699275 1.2208036e-21)
(0.85671779 0.043699275 -1.2208805e-21)
(0.85671779 0.043699275 0)
(0.85671779 0.043699275 -1.2210343e-21)
(0.85671779 0.043699275 2.4422226e-21)
(0.85671779 0.043699275 -2.4423793e-21)
(0.85671779 0.043699275 0)
(0.85671779 0.043699275 2.5229784e-21)
(0.85671779 0.043699275 -2.5231426e-21)
(0.85671779 0.043699275 0)
(0.85671779 0.043699275 -1.2617356e-21)
(0.85671779 0.043699275 1.2618177e-21)
(0.85671779 0.043699275 1.2618999e-21)
(0.85671779 0.043699275 -1.2619821e-21)
(0.85671779 0.043699275 0)
(0.85671779 0.043699275 -1.2621465e-21)
(0.85671779 0.043699275 1.2622287e-21)
(0.85671779 0.043699275 -1.2623109e-21)
(0.85671779 0.043699275 -3.5907402e-34)
(0.85671779 0.043699275 1.262477e-21)
(0.85671779 0.043699275 -2.6089375e-35)
(0.85671779 0.043699275 -2.6111909e-21)
(0.85671779 0.043699275 0)
(0.85671779 0.043699275 0)
(0.85671779 0.043699275 1.3058594e-21)
(0.85671779 0.043699275 -1.3059474e-21)
(0.85671779 0.043699275 0)
(0.85671779 0.043699275 0)
(0.85671779 0.043699275 -1.3062115e-21)
(0.85671779 0.043699275 1.3062996e-21)
(0.85671779 0.043699275 -1.3063876e-21)
(0.85671779 0.043699275 -9.0219819e-34)
(0.85671779 0.043699275 1.3065638e-21)
(0.85671779 0.043699275 0)
(0.85671779 0.043699275 0)
(0.85671779 0.043699275 4.3037036e-21)
(0.85671779 0.043699275 -4.3036439e-21)
(0.85671779 0.043699275 0)
(0.85671779 0.043699275 0)
(0.85671779 0.043699275 0)
(0.85671779 0.043699275 0)
(0.85671779 0.043699275 2.1516726e-21)
(0.85671779 0.043699275 -2.1516428e-21)
(0.85671779 0.043699275 0)
(0.85671779 0.043699275 5.3789576e-22)
(0.85671779 0.043699275 -5.3788829e-22)
(0.85671779 0.043699275 5.3788083e-22)
(0.85671779 0.043699275 -5.3787389e-22)
(0.85671779 0.043699275 -1.1691097e-34)
(0.85671779 0.043699275 -2.4611739e-22)
(0.85671779 0.043699275 2.4706378e-22)
(0.85671779 0.043699275 0)
(0.85671779 0.043699275 -1.2848298e-22)
(0.85671779 0.043699275 1.289989e-22)
(0.85671779 0.043699275 -5.3539001e-22)
(0.85671779 0.043699275 2.68815e-22)
(0.85671779 0.043699275 -2.699444e-22)
(0.85671779 0.043699275 2.8057897e-22)
(0.85671779 0.043699275 0)
(0.85671779 0.043699275 2.8305111e-22)
(0.85671779 0.043699275 2.9341971e-22)
(0.85671779 0.043699275 2.9476584e-22)
(0.85671779 0.043699275 1.4806219e-22)
(0.85671779 0.043699275 -1.4874775e-22)
(0.85671779 0.043699275 1.544854e-22)
(0.85671779 0.043699275 0)
(0.85671779 0.043699275 0)
(0.85671779 0.043699275 0)
(0.85671779 0.043699275 -1.6313127e-22)
(0.85671779 0.043699275 1.6396387e-22)
(0.85671779 0.043699275 0)
(0.85671779 0.043699275 0)
(0.85671779 0.043699275 -6.9120902e-22)
(0.85671779 0.043699275 -5.2121036e-22)
(0.85671779 0.043699275 1.7468148e-22)
(0.85671779 0.043699275 0)
(0.85671779 0.043699275 -1.8264779e-22)
(0.85671779 0.043699275 1.102153e-21)
(0.85671779 0.043699275 -3.6949711e-22)
(0.85671779 0.043699275 3.7163433e-22)
(0.85671779 0.043699275 -3.7379641e-22)
(0.85671779 0.043699275 -7.7943126e-22)
(0.85671779 0.043699275 0)
(0.85671779 0.043699275 1.9725068e-22)
(0.85671779 0.043699275 -3.9693857e-22)
(0.85671779 0.043699275 1.9970304e-22)
(0.85671779 0.043699275 -6.2645182e-22)
(0.85671779 0.043699275 8.4073389e-22)
(0.85671779 0.043699275 4.2313536e-22)
(0.85671779 0.043699275 0)
(0.85671779 0.043699275 2.1439151e-22)
(0.85671779 0.043699275 -1.5635705e-21)
(0.85671779 0.043699275 8.9972462e-22)
(0.85671779 0.043699275 4.530343e-22)
(0.85671779 0.043699275 -6.8437701e-22)
(0.85671779 0.043699275 -2.2975719e-22)
(0.85671779 0.043699275 2.3141224e-22)
(0.85671779 0.043699275 0)
(0.85671779 0.043699275 0)
(0.85671779 0.043699275 2.4560336e-22)
(0.85671779 0.043699275 0)
(0.85671779 0.043699275 0)
(0.85671779 0.043699275 -5.0273722e-22)
(0.85671779 0.043699275 -1.0465948e-21)
(0.85671779 0.043699275 2.374175e-21)
(0.85671779 0.043699275 -2.1278506e-21)
(0.85671779 0.043699275 8.0460569e-22)
(0.85671779 0.043699275 0)
(0.85671779 0.043699275 2.7275615e-22)
(0.85671779 0.043699275 2.750918e-22)
(0.85671779 0.043699275 1.88747e-22)
(0.85671779 0.043699275 1.7540714e-35)
(0.85671779 0.043699275 4.8948142e-23)
(0.85671779 0.043699275 1.4963721e-22)
(0.85671779 0.043699275 1.297036e-21)
(0.85671779 0.043699275 -9.0571036e-22)
(0.85671779 0.043699275 3.3460169e-22)
(0.85671779 0.043699275 4.2503053e-22)
(0.85671779 0.043699275 1.7281291e-22)
(0.85671779 0.043699275 -3.5141485e-22)
(0.85671779 0.043699275 -8.9350274e-23)
(0.85671779 0.043699275 1.7993651e-35)
(0.85671779 0.043699275 9.2501759e-23)
(0.85671779 0.043699275 5.1643366e-36)
(0.85671779 0.043699275 -1.9176737e-22)
(0.85671779 0.043699275 1.9533822e-22)
(0.85671779 0.043699275 -1.4928343e-22)
(0.85671779 0.043699275 -1.5217067e-22)
(0.85671779 0.043699275 6.5741213e-22)
(0.85671779 0.043699275 -7.513605e-22)
(0.85671779 0.043699275 4.2417383e-23)
(0.85671779 0.043699275 0)
(0.85671779 0.043699275 2.6301213e-22)
(0.85671779 0.043699275 -2.6748298e-22)
(0.85671779 0.043699275 4.5351409e-23)
(0.85671779 0.043699275 -1.3844836e-22)
(0.85671779 0.043699275 0)
(0.85671779 0.043699275 3.348301e-22)
(0.85671779 0.043699275 -1.9488597e-22)
(0.85671779 0.043699275 2.4821878e-22)
(0.85671779 0.043699275 -1.5180482e-22)
(0.85671779 0.043699275 1.0319426e-22)
(0.85671779 0.043699275 6.6655363e-22)
(0.85671779 0.043699275 -1.0159694e-21)
(0.85671779 0.043699275 4.3026563e-23)
(0.85671779 0.043699275 -1.0832129e-34)
(0.85671779 0.043699275 3.5589006e-22)
(0.85671779 0.043699275 0)
(0.85671779 0.043699275 4.6048471e-23)
(0.85671779 0.043699275 4.6871457e-23)
(0.85671779 0.043699275 0)
(0.85671779 0.043699275 1.4582687e-22)
(0.85671779 0.043699275 -2.9716153e-22)
(0.85671779 0.043699275 5.0480226e-23)
(0.85671779 0.043699275 -5.1470951e-23)
(0.85671779 0.043699275 2.2499237e-36)
(0.85671779 0.043699275 -1.1895709e-22)
(0.85671779 0.043699275 2.8616737e-22)
(0.85671779 0.043699275 -2.1513089e-22)
(0.85671779 0.043699275 -4.0731744e-22)
(0.85671779 0.043699275 -1.7329277e-34)
(0.85671779 0.043699275 3.6110229e-22)
(0.85671779 0.043699275 0)
(0.85671779 0.043699275 -2.4188205e-23)
(0.85671779 0.043699275 7.5162527e-22)
(0.85671779 0.043699275 -7.5342475e-22)
(0.85671779 0.043699275 7.5523285e-22)
(0.85671779 0.043699275 -3.8174693e-34)
(0.85671779 0.043699275 -7.8335507e-22)
(0.85671779 0.043699275 -7.6070918e-22)
(0.85671779 0.043699275 -1.1057051e-22)
(0.85671779 0.043699275 2.9556972e-22)
(0.85671779 0.043699275 -1.2345359e-23)
(0.85671779 0.043699275 -6.0639749e-22)
(0.85671779 0.043699275 4.0938828e-22)
(0.85671779 0.043699275 -1.24361e-23)
(0.85671779 0.043699275 1.2466644e-23)
(0.85671779 0.043699275 7.8733237e-22)
(0.85671779 0.043699275 -8.1433206e-22)
(0.85671779 0.043699275 0)
(0.85671779 0.043699275 -1.2590337e-23)
(0.85671779 0.043699275 0)
(0.85671779 0.043699275 -8.2245201e-22)
(0.85671779 0.043699275 -5.040091e-34)
(0.85671779 0.043699275 1.2701941e-23)
(0.85671779 0.043699275 -6.3668948e-24)
(0.85671779 0.043699275 1.2765815e-23)
(0.85671779 0.043699275 4.1593508e-22)
(0.85671779 0.043699275 -8.3397292e-22)
(0.85671779 0.043699275 4.3090605e-22)
(0.85671779 0.043699275 -1.934332e-23)
(0.85671779 0.043699275 -8.1448872e-22)
(0.85671779 0.043699275 1.6720213e-21)
(0.85671779 0.043699275 -8.2515633e-22)
(0.85671779 0.043699275 -8.2727427e-22)
(0.85671779 0.043699275 8.359338e-22)
(0.85671779 0.043699275 1.9642745e-23)
(0.85671779 0.043699275 6.5645158e-24)
(0.85671779 0.043699275 -1.051798e-22)
(0.85671779 0.043699275 3.2294919e-22)
(0.85671779 0.043699275 -2.1145473e-22)
(0.85671779 0.043699275 4.3063869e-22)
(0.85671779 0.043699275 -8.5024654e-22)
(0.85671779 0.043699275 4.1957889e-22)
(0.85671779 0.043699275 6.6775055e-24)
(0.85671779 0.043699275 -8.5697552e-22)
(0.85671779 0.043699275 8.5924224e-22)
(0.85671779 0.043699275 -6.7306329e-24)
(0.85671779 0.043699275 6.7485302e-24)
(0.85671779 0.043699275 -8.6611494e-22)
(0.85671779 0.043699275 -6.7846121e-24)
(0.85671779 0.043699275 -6.8027975e-24)
(0.85671779 0.043699275 -4.5538106e-22)
(0.85671779 0.043699275 -4.818404e-22)
(0.85671779 0.043699275 -5.1156423e-22)
(0.85671779 0.043699275 -5.4519632e-22)
(0.85671779 0.043699275 0)
(0.85671779 0.043699275 4.8191026e-22)
(0.85671779 0.043699275 0)
(0.85671779 0.043699275 5.4528536e-22)
(0.85671779 0.043699275 0)
(0.85671779 0.043699275 2.4099109e-22)
(0.85671779 0.043699275 0)
(0.85671779 0.043699275 -2.7268873e-22)
(0.85671779 0.043699275 0)
(0.85671779 0.043699275 -2.4102706e-22)
(0.85671779 0.043699275 0)
(0.85671779 0.043699275 -1.3636739e-22)
(0.85671779 0.043699275 0)
(0.85671779 0.043699275 0)
(0.85671779 0.043699275 0)
(0.85671779 0.043699275 -2.0458563e-22)
(0.85671779 0.043699275 0)
(0.85671779 0.043699275 0)
(0.85671779 0.043699275 0)
(0.85671779 0.043699275 -2.046202e-22)
(0.85671779 0.043699275 0)
(0.85671779 0.043699275 -2.4113503e-22)
(0.85671779 0.043699275 0)
(0.85671779 0.043699275 5.4574606e-22)
(0.85671779 0.043699275 0)
(0.85671779 0.043699275 2.4117104e-22)
(0.85671779 0.043699275 0)
(0.85671779 0.043699275 -2.7291915e-22)
(0.85671779 0.043699275 0)
(0.85671779 0.043699275 0)
(0.85671779 0.043699275 0)
(0.85671779 0.043699275 0)
(0.85671779 0.043699275 0)
(0.85671779 0.043699275 0)
(0.85671779 0.043699275 0)
(0.85671779 0.043699275 1.0920457e-21)
(0.85671779 0.043699275 0)
(0.85671779 0.043699275 0)
(0.85671779 0.043699275 0)
(0.85671779 0.043699275 -2.1844607e-21)
(0.85671779 0.043699275 0)
(0.85671779 0.043699275 0)
(0.85671779 0.043699275 0)
(0.85671779 0.043699275 2.1848301e-21)
(0.85671779 0.043699275 0)
(0.85671779 0.043699275 0)
(0.85671779 0.043699275 0)
(0.85671779 0.043699275 -2.1851997e-21)
(0.85671779 0.043699275 9.1243125e-22)
(0.85671779 0.043699275 0)
(0.85671779 0.043699275 1.0252353e-21)
(0.85671779 0.043699275 2.1855719e-21)
(0.85671779 0.043699275 5.892427e-23)
(0.85671779 0.043699275 -1.1850727e-22)
(0.85671779 0.043699275 1.1917341e-22)
(0.85671779 0.043699275 -5.9923535e-23)
(0.85671779 0.043699275 6.0264194e-23)
(0.85671779 0.043699275 0)
(0.85671779 0.043699275 0)
(0.85671779 0.043699275 0)
(0.85671779 0.043699275 -6.1666469e-23)
(0.85671779 0.043699275 6.2027296e-23)
(0.85671779 0.043699275 4.9913895e-22)
(0.85671779 0.043699275 -5.6485587e-22)
(0.85671779 0.043699275 0)
(0.85671779 0.043699275 0)
(0.85671779 0.043699275 5.7953357e-23)
(0.85671779 0.043699275 0)
(0.85671779 0.043699275 -2.3437607e-22)
(0.85671779 0.043699275 -2.2266924e-35)
(0.85671779 0.043699275 2.36996e-22)
(0.85671779 0.043699275 0)
(0.85671779 0.043699275 -2.3967517e-22)
(0.85671779 0.043699275 2.4103759e-22)
(0.85671779 0.043699275 0)
(0.85671779 0.043699275 0)
(0.85671779 0.043699275 0)
(0.85671779 0.043699275 0)
(0.85671779 0.043699275 0)
(0.85671779 0.043699275 4.9909785e-22)
(0.85671779 0.043699275 0)
(0.85671779 0.043699275 0)
(0.85671779 0.043699275 -2.3053548e-22)
(0.85671779 0.043699275 2.4628293e-22)
(0.85671779 0.043699275 -1.4566861e-23)
(0.85671779 0.043699275 1.4647371e-23)
(0.85671779 0.043699275 -1.4728776e-23)
(0.85671779 0.043699275 0)
(0.85671779 0.043699275 1.4894331e-23)
(0.85671779 0.043699275 -4.9429092e-22)
(0.85671779 0.043699275 1.506365e-23)
(0.85671779 0.043699275 4.8479238e-22)
(0.85671779 0.043699275 -1.5236864e-23)
(0.85671779 0.043699275 0)
(0.85671779 0.043699275 5.6104456e-23)
(0.85671779 0.043699275 0)
(0.85671779 0.043699275 0)
(0.85671779 0.043699275 -1.4252408e-23)
(0.85671779 0.043699275 1.4329471e-23)
(0.85671779 0.043699275 -2.4492531e-22)
(0.85671779 0.043699275 4.7804206e-22)
(0.85671779 0.043699275 -2.3305185e-22)
(0.85671779 0.043699275 -1.4646238e-23)
(0.85671779 0.043699275 1.4727631e-23)
(0.85671779 0.043699275 -1.4809933e-23)
(0.85671779 0.043699275 0)
(0.85671779 0.043699275 4.9425182e-22)
(0.85671779 0.043699275 -3.8839434e-34)
(0.85671779 0.043699275 -2.3070775e-21)
(0.85671779 0.043699275 0)
(0.85671779 0.043699275 0)
(0.85671779 0.043699275 2.6058599e-21)
(0.85671779 0.043699275 0)
(0.85671779 0.043699275 0)
(0.85671779 0.043699275 0)
(0.85671779 0.043699275 -2.6058588e-21)
(0.85671779 0.043699275 0)
(0.85671779 0.043699275 0)
(0.85671779 0.043699275 -1.1173727e-23)
(0.85671779 0.043699275 4.5908371e-36)
(0.85671779 0.043699275 0)
(0.85671779 0.043699275 1.116194e-23)
(0.85671779 0.043699275 -2.2316033e-23)
(0.85671779 0.043699275 -2.2832433e-20)
(0.85671779 0.043699275 4.9925039e-33)
(0.85671779 0.043699275 4.9178454e-33)
(0.85671779 0.043699275 -4.6857203e-20)
(0.85671779 0.043699275 2.3408725e-20)
(0.85671779 0.043699275 2.3411724e-20)
(0.85671779 0.043699275 -2.3426153e-20)
(0.85671779 0.043699275 2.3394876e-20)
(0.85671779 0.043699275 -2.3386456e-20)
(0.85671779 0.043699275 2.337805e-20)
(0.85671779 0.043699275 -2.3358235e-20)
(0.85671779 0.043699275 -2.3349839e-20)
(0.85671779 0.043699275 2.3352856e-20)
(0.85671779 0.043699275 1.1445238e-35)
(0.85671779 0.043699275 0)
(0.85671779 0.043699275 2.3964596e-20)
(0.85671779 0.043699275 -2.3961609e-20)
(0.85671779 0.043699275 -1.169284e-23)
(0.85671779 0.043699275 2.3955651e-20)
(0.85671779 0.043699275 -2.3929307e-20)
(0.85671779 0.043699275 2.3932182e-20)
(0.85671779 0.043699275 -2.3900029e-20)
(0.85671779 0.043699275 0)
(0.85671779 0.043699275 0)
(0.85671779 0.043699275 0)
(0.85671779 0.043699275 -2.3888232e-20)
(0.85671779 0.043699275 2.3867808e-20)
(0.85671779 0.043699275 -2.38474e-20)
(0.85671779 0.043699275 2.3850293e-20)
(0.85671779 0.043699275 5.9832015e-24)
(0.85671779 0.043699275 5.9809467e-24)
(0.85671779 0.043699275 -2.4488725e-20)
(0.85671779 0.043699275 -5.9764415e-24)
(0.85671779 0.043699275 0)
(0.85671779 0.043699275 2.4461084e-20)
(0.85671779 0.043699275 4.7235855e-34)
(0.85671779 0.043699275 -2.443672e-20)
(0.85671779 0.043699275 0)
(0.85671779 0.043699275 5.9629689e-24)
(0.85671779 0.043699275 -5.96073e-24)
(0.85671779 0.043699275 2.441194e-20)
(0.85671779 0.043699275 -2.4396827e-20)
(0.85671779 0.043699275 -2.438767e-20)
(0.85671779 0.043699275 -2.5087179e-20)
(0.85671779 0.043699275 2.5059142e-20)
(0.85671779 0.043699275 6.1170896e-24)
(0.85671779 0.043699275 6.114733e-24)
(0.85671779 0.043699275 -6.1123778e-24)
(0.85671779 0.043699275 6.1100255e-24)
(0.85671779 0.043699275 0)
(0.85671779 0.043699275 -6.1053239e-24)
(0.85671779 0.043699275 6.102977e-24)
(0.85671779 0.043699275 -2.4994283e-20)
(0.85671779 0.043699275 2.4984682e-20)
(0.85671779 0.043699275 -6.0959442e-24)
(0.85671779 0.043699275 6.0936043e-24)
(0.85671779 0.043699275 0)
(0.85671779 0.043699275 2.5669604e-20)
(0.85671779 0.043699275 -5.1318926e-20)
(0.85671779 0.043699275 2.5643077e-20)
(0.85671779 0.043699275 -1.2519152e-23)
(0.85671779 0.043699275 6.2571076e-24)
(0.85671779 0.043699275 -6.2546424e-24)
(0.85671779 0.043699275 -2.5615175e-20)
(0.85671779 0.043699275 5.1191427e-20)
(0.85671779 0.043699275 -5.1183773e-20)
(0.85671779 0.043699275 2.557245e-20)
(0.85671779 0.043699275 0)
(0.85671779 0.043699275 -6.2398881e-24)
(0.85671779 0.043699275 -6.2374358e-24)
(0.85671779 0.043699275 -6.2349855e-24)
(0.85671779 0.043699275 6.4192288e-24)
(0.85671779 0.043699275 6.4166317e-24)
(0.85671779 0.043699275 -2.62719e-20)
(0.85671779 0.043699275 2.6267701e-20)
(0.85671779 0.043699275 -2.6250682e-20)
(0.85671779 0.043699275 0)
(0.85671779 0.043699275 6.4036862e-24)
(0.85671779 0.043699275 6.4011042e-24)
(0.85671779 0.043699275 0)
(0.85671779 0.043699275 3.1979726e-24)
(0.85671779 0.043699275 0)
(0.85671779 0.043699275 2.6179889e-20)
(0.85671779 0.043699275 -2.6166157e-20)
(0.85671779 0.043699275 6.3856519e-24)
(0.85671779 0.043699275 2.6947766e-20)
(0.85671779 0.043699275 -2.6939883e-20)
(0.85671779 0.043699275 0)
(0.85671779 0.043699275 -3.2854359e-24)
(0.85671779 0.043699275 0)
(0.85671779 0.043699275 0)
(0.85671779 0.043699275 2.6880901e-20)
(0.85671779 0.043699275 -2.6866511e-20)
(0.85671779 0.043699275 -2.6858692e-20)
(0.85671779 0.043699275 6.5545892e-24)
(0.85671779 0.043699275 2.6836515e-20)
(0.85671779 0.043699275 6.5491798e-24)
(0.85671779 0.043699275 -3.2732396e-24)
(0.85671779 0.043699275 3.2718897e-24)
(0.85671779 0.043699275 -5.5273288e-20)
(0.85671779 0.043699275 5.5251471e-20)
(0.85671779 0.043699275 5.3003924e-33)
(0.85671779 0.043699275 -2.7598911e-20)
(0.85671779 0.043699275 0)
(0.85671779 0.043699275 -1.6831773e-24)
(0.85671779 0.043699275 0)
(0.85671779 0.043699275 -1.6817503e-24)
(0.85671779 0.043699275 0)
(0.85671779 0.043699275 -5.040978e-24)
(0.85671779 0.043699275 -2.7518808e-20)
(0.85671779 0.043699275 2.7503806e-20)
(0.85671779 0.043699275 1.678194e-24)
(0.85671779 0.043699275 -3.3549686e-24)
(0.85671779 0.043699275 1.7309503e-24)
(0.85671779 0.043699275 0)
(0.85671779 0.043699275 0)
(0.85671779 0.043699275 1.7286874e-24)
(0.85671779 0.043699275 0)
(0.85671779 0.043699275 1.7271824e-24)
(0.85671779 0.043699275 0)
(0.85671779 0.043699275 2.8271813e-20)
(0.85671779 0.043699275 -2.8261248e-20)
(0.85671779 0.043699275 2.8250694e-20)
(0.85671779 0.043699275 -2.82367e-20)
(0.85671779 0.043699275 0)
(0.85671779 0.043699275 1.7219354e-24)
(0.85671779 0.043699275 0)
(0.85671779 0.043699275 0)
(0.85671779 0.043699275 -2.9109891e-20)
(0.85671779 0.043699275 2.9096862e-20)
(0.85671779 0.043699275 -2.9083845e-20)
(0.85671779 0.043699275 5.3834892e-33)
(0.85671779 0.043699275 2.9057848e-20)
(0.85671779 0.043699275 0)
(0.85671779 0.043699275 0)
(0.85671779 0.043699275 0)
(0.85671779 0.043699275 0)
(0.85671779 0.043699275 2.899305e-20)
(0.85671779 0.043699275 3.0295415e-32)
(0.85671779 0.043699275 -2.896721e-20)
(0.85671779 0.043699275 -2.8954309e-20)
(0.85671779 0.043699275 -4.9837973e-32)
(0.85671779 0.043699275 2.5305491e-20)
(0.85671779 0.043699275 -2.5297993e-20)
(0.85671779 0.043699275 2.5290501e-20)
(0.85671779 0.043699275 -2.5283015e-20)
(0.85671779 0.043699275 -6.8806753e-33)
(0.85671779 0.043699275 8.6011032e-33)
(0.85671779 0.043699275 2.5260579e-20)
(0.85671779 0.043699275 0)
(0.85671779 0.043699275 0)
(0.85671779 0.043699275 -2.5238184e-20)
(0.85671779 0.043699275 1.0476389e-32)
(0.85671779 0.043699275 1.0848542e-32)
(0.85671779 0.043699275 5.0431655e-20)
(0.85671779 0.043699275 -2.4574341e-20)
(0.85671779 0.043699275 4.9131547e-20)
(0.85671779 0.043699275 -4.9117419e-20)
(0.85671779 0.043699275 -2.5998495e-32)
(0.85671779 0.043699275 2.4543093e-20)
(0.85671779 0.043699275 0)
(0.85671779 0.043699275 0)
(0.85671779 0.043699275 -1.4967925e-24)
(0.85671779 0.043699275 2.4516409e-20)
(0.85671779 0.043699275 -4.9018745e-20)
(0.85671779 0.043699275 2.4502338e-20)
(0.85671779 0.043699275 -1.4950752e-24)
(0.85671779 0.043699275 0)
(0.85671779 0.043699275 0)
(0.85671779 0.043699275 -2.3873291e-20)
(0.85671779 0.043699275 4.773615e-20)
(0.85671779 0.043699275 -2.3861405e-20)
(0.85671779 0.043699275 0)
(0.85671779 0.043699275 2.3849532e-20)
(0.85671779 0.043699275 1.737974e-32)
(0.85671779 0.043699275 -2.3834769e-20)
(0.85671779 0.043699275 -2.3825208e-20)
(0.85671779 0.043699275 1.0964987e-32)
(0.85671779 0.043699275 2.3814829e-20)
(0.85671779 0.043699275 -2.3808186e-20)
(0.85671779 0.043699275 4.7604563e-20)
(0.85671779 0.043699275 -4.7588389e-20)
(0.85671779 0.043699275 -2.287133e-33)
(0.85671779 0.043699275 -2.3212387e-20)
(0.85671779 0.043699275 -2.8807582e-33)
(0.85671779 0.043699275 2.3202607e-20)
(0.85671779 0.043699275 2.8315801e-24)
(0.85671779 0.043699275 0)
(0.85671779 0.043699275 0)
(0.85671779 0.043699275 -2.3174589e-20)
(0.85671779 0.043699275 2.3169716e-20)
(0.85671779 0.043699275 -2.3164844e-20)
(0.85671779 0.043699275 2.316139e-20)
(0.85671779 0.043699275 -2.3152285e-20)
(0.85671779 0.043699275 2.8254407e-24)
(0.85671779 0.043699275 2.3138325e-20)
(0.85671779 0.043699275 2.8239099e-24)
(0.85671779 0.043699275 2.7555048e-37)
(0.85671779 0.043699275 0)
(0.85671779 0.043699275 0)
(0.85671779 0.043699275 -5.5110447e-24)
(0.85671779 0.043699275 -2.2567277e-20)
(0.85671779 0.043699275 -2.7540664e-24)
(0.85671779 0.043699275 2.2555354e-20)
(0.85671779 0.043699275 -2.25494e-20)
(0.85671779 0.043699275 2.2546197e-20)
(0.85671779 0.043699275 -2.2540248e-20)
(0.85671779 0.043699275 2.2528803e-20)
(0.85671779 0.043699275 5.5350118e-36)
(0.85671779 0.043699275 0)
(0.85671779 0.043699275 -2.748258e-24)
(0.85671779 0.043699275 -2.2002445e-20)
(0.85671779 0.043699275 2.1994094e-20)
(0.85671779 0.043699275 0)
(0.85671779 0.043699275 2.1985455e-20)
(0.85671779 0.043699275 -2.197175e-20)
(0.85671779 0.043699275 8.0461885e-24)
(0.85671779 0.043699275 -2.6813732e-24)
(0.85671779 0.043699275 -2.1965522e-20)
(0.85671779 0.043699275 2.1951835e-20)
(0.85671779 0.043699275 -2.1948873e-20)
(0.85671779 0.043699275 2.1945913e-20)
(0.85671779 0.043699275 -2.6779293e-24)
(0.85671779 0.043699275 5.3544831e-24)
(0.85671779 0.043699275 2.1920977e-20)
(0.85671779 0.043699275 5.2340185e-24)
(0.85671779 0.043699275 0)
(0.85671779 0.043699275 5.2313922e-24)
(0.85671779 0.043699275 5.2300798e-24)
(0.85671779 0.043699275 -5.2287682e-24)
(0.85671779 0.043699275 -2.1422117e-20)
(0.85671779 0.043699275 2.1411524e-20)
(0.85671779 0.043699275 -2.1395709e-20)
(0.85671779 0.043699275 2.1390348e-20)
(0.85671779 0.043699275 5.2222201e-24)
(0.85671779 0.043699275 -2.1384857e-20)
(0.85671779 0.043699275 2.1384724e-20)
(0.85671779 0.043699275 -1.0436597e-23)
(0.85671779 0.043699275 1.0433986e-23)
(0.85671779 0.043699275 2.0905242e-20)
(0.85671779 0.043699275 0)
(0.85671779 0.043699275 -5.1013213e-24)
(0.85671779 0.043699275 -5.1000732e-24)
(0.85671779 0.043699275 -2.0884792e-20)
(0.85671779 0.043699275 2.0884782e-20)
(0.85671779 0.043699275 2.0874583e-20)
(0.85671779 0.043699275 -4.173896e-20)
(0.85671779 0.043699275 2.0869476e-20)
(0.85671779 0.043699275 -2.0864378e-20)
(0.85671779 0.043699275 2.0854194e-20)
(0.85671779 0.043699275 -5.0901125e-24)
(0.85671779 0.043699275 2.0849101e-20)
(0.85671779 0.043699275 -2.0844012e-20)
(0.85671779 0.043699275 -4.9799394e-24)
(0.85671779 0.043699275 0)
(0.85671779 0.043699275 0)
(0.85671779 0.043699275 0)
(0.85671779 0.043699275 -2.0378363e-20)
(0.85671779 0.043699275 4.0746997e-20)
(0.85671779 0.043699275 -2.0373614e-20)
(0.85671779 0.043699275 0)
(0.85671779 0.043699275 -2.035396e-20)
(0.85671779 0.043699275 2.0354076e-20)
(0.85671779 0.043699275 4.9680731e-24)
(0.85671779 0.043699275 0)
(0.85671779 0.043699275 2.0339536e-20)
(0.85671779 0.043699275 -2.0334689e-20)
(0.85671779 0.043699275 -4.8619308e-24)
(0.85671779 0.043699275 -1.9909826e-20)
(0.85671779 0.043699275 1.9900324e-20)
(0.85671779 0.043699275 -4.8585317e-24)
(0.85671779 0.043699275 -1.9900768e-20)
(0.85671779 0.043699275 1.9896132e-20)
(0.85671779 0.043699275 4.8551376e-24)
(0.85671779 0.043699275 -4.8540073e-24)
(0.85671779 0.043699275 -9.7057556e-24)
(0.85671779 0.043699275 -4.8517483e-24)
(0.85671779 0.043699275 -1.9877839e-20)
(0.85671779 0.043699275 1.9868366e-20)
(0.85671779 0.043699275 -4.848364e-24)
(0.85671779 0.043699275 0)
(0.85671779 0.043699275 1.9458231e-20)
(0.85671779 0.043699275 0)
(0.85671779 0.043699275 4.7472229e-24)
(0.85671779 0.043699275 -4.7461422e-24)
(0.85671779 0.043699275 -1.9431029e-20)
(0.85671779 0.043699275 1.9417119e-20)
(0.85671779 0.043699275 -4.7429033e-24)
(0.85671779 0.043699275 -1.9417772e-20)
(0.85671779 0.043699275 -4.7407465e-24)
(0.85671779 0.043699275 4.7396688e-24)
(0.85671779 0.043699275 1.9404532e-20)
(0.85671779 0.043699275 -4.7375146e-24)
(0.85671779 0.043699275 4.7364387e-24)
(0.85671779 0.043699275 -1.9405517e-20)
(0.85671779 0.043699275 1.8992214e-20)
(0.85671779 0.043699275 -1.8978723e-20)
(0.85671779 0.043699275 -9.26942e-24)
(0.85671779 0.043699275 1.8534721e-23)
(0.85671779 0.043699275 -1.8966072e-20)
(0.85671779 0.043699275 1.8971121e-20)
(0.85671779 0.043699275 9.2611853e-24)
(0.85671779 0.043699275 -1.8971955e-20)
(0.85671779 0.043699275 1.8514147e-23)
(0.85671779 0.043699275 -8.3762297e-22)
(0.85671779 0.043699275 -3.4902084e-24)
(0.85671779 0.043699275 1.6349579e-24)
(0.85671779 0.043699275 -1.7439385e-24)
(0.85671779 0.043699275 3.7369706e-24)
(0.85671779 0.043699275 -1.0342656e-21)
(0.85671779 0.043699275 0)
(0.85671779 0.043699275 -1.7880865e-21)
(0.85671779 0.043699275 7.4685963e-24)
(0.85671779 0.043699275 3.0883433e-21)
(0.85671779 0.043699275 2.2259385e-21)
(0.85671779 0.043699275 -1.2164111e-21)
(0.85671779 0.043699275 1.6704697e-21)
(0.85671779 0.043699275 1.7816689e-21)
(0.85671779 0.043699275 1.9143259e-21)
(0.85671779 0.043699275 -2.0573112e-21)
(0.85671779 0.043699275 -6.2625891e-33)
(0.85671779 0.043699275 4.8612207e-21)
(0.85671779 0.043699275 2.6835721e-21)
(0.85671779 0.043699275 -1.6726893e-21)
(0.85671779 0.043699275 1.7404508e-24)
(0.85671779 0.043699275 3.7289644e-24)
(0.85671779 0.043699275 1.4794948e-36)
(0.85671779 0.043699275 -4.4575079e-21)
(0.85671779 0.043699275 -2.4284026e-21)
(0.85671779 0.043699275 0)
(0.85671779 0.043699275 0)
(0.85671779 0.043699275 -1.6716445e-21)
(0.85671779 0.043699275 5.217874e-24)
(0.85671779 0.043699275 -1.9115936e-21)
(0.85671779 0.043699275 -2.0501377e-21)
(0.85671779 0.043699275 4.4451082e-21)
(0.85671779 0.043699275 0)
(0.85671779 0.043699275 1.0421075e-23)
(0.85671779 0.043699275 -2.9744019e-21)
(0.85671779 0.043699275 1.6706009e-21)
(0.85671779 0.043699275 -1.7815867e-21)
(0.85671779 0.043699275 3.723646e-24)
(0.85671779 0.043699275 4.1051452e-21)
(0.85671779 0.043699275 -1.302467e-23)
(0.85671779 0.043699275 9.4687458e-24)
(0.85671779 0.043699275 2.6651357e-21)
(0.85671779 0.043699275 -8.7066038e-33)
(0.85671779 0.043699275 0)
(0.85671779 0.043699275 0)
(0.85671779 0.043699275 1.7751905e-21)
(0.85671779 0.043699275 1.9088692e-21)
(0.85671779 0.043699275 -2.0469921e-21)
(0.85671779 0.043699275 -4.3379496e-24)
(0.85671779 0.043699275 0)
(0.85671779 0.043699275 -2.6520812e-21)
(0.85671779 0.043699275 5.9010036e-21)
(0.85671779 0.043699275 0)
(0.85671779 0.043699275 1.4818215e-23)
(0.85671779 0.043699275 -1.5119057e-23)
(0.85671779 0.043699275 2.298083e-34)
(0.85671779 0.043699275 7.691302e-21)
(0.85671779 0.043699275 -7.6891677e-21)
(0.85671779 0.043699275 7.6870423e-21)
(0.85671779 0.043699275 0)
(0.85671779 0.043699275 1.7014018e-32)
(0.85671779 0.043699275 6.4086297e-21)
(0.85671779 0.043699275 0)
(0.85671779 0.043699275 0)
(0.85671779 0.043699275 0)
(0.85671779 0.043699275 -2.4945688e-23)
(0.85671779 0.043699275 -2.4899569e-23)
(0.85671779 0.043699275 3.1812635e-21)
(0.85671779 0.043699275 5.5219006e-21)
(0.85671779 0.043699275 4.3070867e-23)
(0.85671779 0.043699275 -1.100854e-20)
(0.85671779 0.043699275 -2.1466785e-23)
(0.85671779 0.043699275 5.4867516e-21)
(0.85671779 0.043699275 2.1398571e-23)
(0.85671779 0.043699275 2.1364627e-23)
(0.85671779 0.043699275 2.7090105e-21)
(0.85671779 0.043699275 -2.7260238e-21)
(0.85671779 0.043699275 -1.8865841e-23)
(0.85671779 0.043699275 -3.7678904e-23)
(0.85671779 0.043699275 -1.8813136e-23)
(0.85671779 0.043699275 -4.7906579e-21)
(0.85671779 0.043699275 4.7839848e-21)
(0.85671779 0.043699275 -1.8734628e-23)
(0.85671779 0.043699275 1.8708604e-23)
(0.85671779 0.043699275 3.7365306e-23)
(0.85671779 0.043699275 0)
(0.85671779 0.043699275 -1.8630965e-23)
(0.85671779 0.043699275 4.3084043e-21)
(0.85671779 0.043699275 -4.2695615e-21)
(0.85671779 0.043699275 2.0297994e-35)
(0.85671779 0.043699275 0)
(0.85671779 0.043699275 -4.2536975e-21)
(0.85671779 0.043699275 4.2817566e-21)
(0.85671779 0.043699275 -1.6639948e-23)
(0.85671779 0.043699275 -2.1439045e-21)
(0.85671779 0.043699275 2.1246633e-21)
(0.85671779 0.043699275 -5.7757503e-36)
(0.85671779 0.043699275 0)
(0.85671779 0.043699275 -1.5083899e-23)
(0.85671779 0.043699275 1.5067025e-23)
(0.85671779 0.043699275 1.5050188e-23)
(0.85671779 0.043699275 0)
(0.85671779 0.043699275 1.5016628e-23)
(0.85671779 0.043699275 0)
(0.85671779 0.043699275 -1.9028685e-21)
(0.85671779 0.043699275 1.9157205e-21)
(0.85671779 0.043699275 0)
(0.85671779 0.043699275 1.9264056e-21)
(0.85671779 0.043699275 1.4916838e-23)
(0.85671779 0.043699275 -1.9072429e-21)
(0.85671779 0.043699275 2.7419474e-23)
(0.85671779 0.043699275 -3.5061238e-21)
(0.85671779 0.043699275 3.5162439e-21)
(0.85671779 0.043699275 0)
(0.85671779 0.043699275 3.4818062e-21)
(0.85671779 0.043699275 -3.4782799e-21)
(0.85671779 0.043699275 -1.7578202e-21)
(0.85671779 0.043699275 1.7560435e-21)
(0.85671779 0.043699275 1.7542704e-21)
(0.85671779 0.043699275 -1.7389156e-21)
(0.85671779 0.043699275 -1.3571589e-23)
(0.85671779 0.043699275 1.7354147e-21)
(0.85671779 0.043699275 -1.7065809e-21)
(0.85671779 0.043699275 -6.2825231e-24)
(0.85671779 0.043699275 3.207377e-21)
(0.85671779 0.043699275 -6.4338639e-21)
(0.85671779 0.043699275 -6.2649886e-24)
(0.85671779 0.043699275 3.1984336e-21)
(0.85671779 0.043699275 -1.876006e-23)
(0.85671779 0.043699275 0)
(0.85671779 0.043699275 1.5791656e-21)
(0.85671779 0.043699275 -3.2115303e-21)
(0.85671779 0.043699275 3.1898685e-21)
(0.85671779 0.043699275 -6.2244531e-24)
(0.85671779 0.043699275 -1.5919885e-21)
(0.85671779 0.043699275 -1.8638904e-23)
(0.85671779 0.043699275 -5.7983881e-24)
(0.85671779 0.043699275 -5.7933997e-24)
(0.85671779 0.043699275 -2.963671e-21)
(0.85671779 0.043699275 5.9280349e-21)
(0.85671779 0.043699275 -2.9528064e-21)
(0.85671779 0.043699275 5.7735319e-24)