/*--------------------------------*- C++ -*----------------------------------*\
| =========                 |                                                 |
| \\      /  F ield         | OpenFOAM: The Open Source CFD Toolbox           |
|  \\    /   O peration     | Version:  2206                                  |
|   \\  /    A nd           | Website:  www.openfoam.com                      |
|    \\/     M anipulation  |                                                 |
\*---------------------------------------------------------------------------*/
FoamFile
{
    version     2.0;
    format      ascii;
    arch        "LSB;label=32;scalar=64";
    class       volScalarField;
    location    "0";
    object      nutMean;
}
// * * * * * * * * * * * * * * * * * * * * * * * * * * * * * * * * * * * * * //

dimensions      [0 2 -1 0 0 0 0];

internalField   nonuniform List<scalar> 
19794
(
0.59658371
0.6413676
0.54533164
0.66460008
0.57686628
0.51225014
0.68573903
0.59443966
0.53199257
0.4980111
0.69682065
0.61007205
0.54402932
0.51183551
0.49330662
0.70020917
0.61939008
0.55660827
0.52136078
0.50563705
0.49250912
0.69697191
0.62445266
0.5672772
0.53280287
0.51514246
0.50604501
0.49292457
0.6899672
0.62658134
0.57708874
0.54449068
0.52750588
0.51758686
0.50939901
0.49423054
0.68155893
0.62759861
0.58619947
0.5564846
0.54116173
0.53286592
0.52543054
0.51608469
0.49645804
0.67370169
0.62855308
0.59481001
0.56807274
0.5554834
0.54982133
0.54688568
0.53961326
0.52670066
0.50034261
0.66771902
0.6300402
0.60283375
0.57876387
0.56921396
0.56704293
0.57074422
0.57065368
0.5607569
0.54222206
0.50660435
0.66444992
0.63234586
0.61018524
0.5881992
0.5815496
0.58266628
0.5944245
0.60472991
0.60437315
0.58906046
0.56277872
0.51575423
0.66425784
0.63563474
0.61684771
0.59620251
0.59212011
0.59568709
0.61516812
0.63792403
0.65161448
0.64700055
0.62349332
0.58774844
0.52781858
0.6670925
0.63997018
0.62288307
0.60272192
0.60084035
0.60590991
0.6315409
0.66650555
0.69744025
0.70894559
0.69632102
0.66230497
0.61579575
0.54229572
0.67259393
0.64528831
0.62839732
0.60781293
0.60772276
0.61357887
0.64342375
0.68847701
0.73730933
0.76906483
0.77345679
0.74961965
0.7032331
0.6451044
0.55822161
0.68022851
0.65140171
0.63347144
0.61161645
0.61283834
0.6189687
0.65146325
0.70360451
0.76862202
0.82221345
0.8486063
0.84157775
0.80392613
0.74374785
0.67357365
0.57431204
0.68940958
0.65804074
0.63812439
0.61429926
0.61634331
0.62229507
0.65637637
0.71283464
0.79080324
0.86527233
0.91621557
0.93164
0.90975382
0.85618748
0.78120401
0.69900646
0.58913312
0.69958152
0.6649106
0.64231672
0.61600883
0.61844441
0.62380651
0.65866098
0.71742273
0.80477902
0.89728237
0.97276603
1.0139368
1.0140658
0.97451548
0.90335098
0.81298463
0.71928496
0.6012805
0.71026352
0.67173733
0.64598298
0.61686334
0.61935027
0.62382194
0.65868908
0.71836527
0.81211659
0.91897502
1.0169683
1.0846108
1.1107
1.0920382
1.0324847
0.94245744
0.83664882
0.73254074
0.60956672
0.72106418
0.6782936
0.64906306
0.61697048
0.61924529
0.62268281
0.65686433
0.71632014
0.81430367
0.93197447
1.0493188
1.1420977
1.1954631
1.2022645
1.1618953
1.0804058
0.97076008
0.85009089
0.73732599
0.61324033
0.73167858
0.68440621
0.65152133
0.6164461
0.61830111
0.62069226
0.65365256
0.71178116
0.81244604
0.93805943
1.0713341
1.1867015
1.2665372
1.3006036
1.2846881
1.2201152
1.1152255
0.98587473
0.85170969
0.73280214
0.61228329
0.74187755
0.68995295
0.65335021
0.61541776
0.61669372
0.61810155
0.64952168
0.70523784
0.80727396
0.9387664
1.0848269
1.2198229
1.3240834
1.38495
1.3957701
1.3541972
1.2633447
1.1342285
0.98595713
0.84059052
0.71898435
0.60784004
0.75149454
0.69485406
0.65456681
0.61401542
0.61460458
0.61512368
0.64488116
0.69723687
0.79928522
0.93523648
1.0915129
1.2432204
1.3694367
1.4553319
1.4926666
1.476921
1.4071492
1.2885099
1.1352243
0.96990045
0.81671564
0.69711654
0.60275431
0.7604146
0.69906379
0.65520598
0.61235941
0.61220705
0.6119434
0.6400579
0.68835586
0.78891347
0.92821463
1.0928267
1.2586154
1.4043194
1.5130598
1.5752459
1.5853295
1.5401238
1.4401105
1.2930079
1.1167716
0.9375495
0.78126214
0.67022671
0.60196615
0.76856545
0.70256389
0.65531413
0.61055093
0.60965099
0.60871444
0.635294
0.67915044
0.77663568
0.91815516
1.0898411
1.2675263
1.4304166
1.5598722
1.6448156
1.6790854
1.6587157
1.5816094
1.4500594
1.2749653
1.0784251
0.88995358
0.73710593
0.6435795
0.61239986
0.77590966
0.70535912
0.65494545
0.6086688
0.60705397
0.60555385
0.63074967
0.67010267
0.76300945
0.9053706
1.083263
1.2712006
1.4492164
1.5974602
1.703188
1.7595155
1.7623577
1.7087924
1.598005
1.4346876
1.2335342
1.0209929
0.82975573
0.68949653
0.62422487
0.6419301
0.78243733
0.70747375
0.65415961
0.60677109
0.60450067
0.60254211
0.62651229
0.66157944
0.74865303
0.89017134
1.0734969
1.2705823
1.4619722
1.6272895
1.7521304
1.8285659
1.8524332
1.8208746
1.7319684
1.5866651
1.3927405
1.1691889
0.94684242
0.76186829
0.64611973
0.61932164
0.69478961
0.78815956
0.70894813
0.6530203
0.60489935
0.60204846
0.59972895
0.62261469
0.65381263
0.73418808
0.8729547
1.0607647
1.2663112
1.4696946
1.6505721
1.7931437
1.8881389
1.9310556
1.919311
1.8509546
1.7253899
1.5460086
1.324344
1.08401
0.86040802
0.69412079
0.61539038
0.63394173
0.75789742
0.79310174
0.7098349
0.6515934
0.60308275
0.59973443
0.59714169
0.61905685
0.64690681
0.72017321
0.85423001
1.0452373
1.2587656
1.4731572
1.668282
1.8274232
1.9398138
2.0002679
2.0063459
1.956436
1.849614
1.6872201
1.4758411
1.2312986
0.98203369
0.76901838
0.6363868
0.60384165
0.66741334
0.79510801
0.79729904
0.71019502
0.64994441
0.60134101
0.59758105
0.59479222
0.61582412
0.64086834
0.70705114
0.8345938
1.0271375
1.2481442
1.4729087
1.6811873
1.8558888
1.9847973
2.0617227
2.0841067
2.0506912
1.9607156
1.8147796
1.616945
1.3776715
1.1173595
0.86989408
0.68315632
0.5974603
0.61452058
0.70824844
0.78847875
0.8007926
0.71009445
0.64813618
0.5996864
0.59560019
0.59268119
0.61289776
0.63564161
0.69512087
0.81467762
1.0067922
1.2345657
1.4693077
1.6898807
1.8792404
2.0239706
2.1166445
2.1542819
2.1358521
2.0608983
1.9298481
1.745599
1.5157348
1.2550138
0.98864526
0.75762622
0.61413192
0.58268599
0.64501993
0.73257604
0.77588009
0.80362625
0.70960082
0.64622655
0.59812498
0.59379546
0.59080055
0.6102587
0.63114004
0.68453735
0.79508997
0.98464019
1.2181551
1.4625705
1.6948109
1.8980137
2.0579599
2.1658914
2.2181027
2.2135957
2.1522227
2.0344612
1.8626407
1.6428539
1.3868209
1.1136866
0.85437613
0.65783491
0.57033815
0.59397917
0.67606972
0.74420527
0.76290032
0.8058436
0.70878156
0.64426733
0.59665797
0.59216442
0.58913541
0.60788776
0.62726699
0.67533093
0.77636315
0.96120755
1.1991017
1.4528308
1.6963111
1.9126326
2.0872121
2.2100341
2.2764103
2.2851353
2.2363053
2.1305478
1.9698725
1.7594633
1.509425
1.2358163
0.9622755
0.72706016
0.5820838
0.55621992
0.62020749
0.69621885
0.75096398
0.75191959
0.8074876
0.70770217
0.64230311
0.5952828
0.59070009
0.58766623
0.60576513
0.62392792
0.66743803
0.75891462
0.93706931
1.1776845
1.4401985
1.6946249
1.9234478
2.1120652
2.2494412
2.3297372
2.3512878
2.3143085
2.2196187
2.0690494
1.8670943
1.6227875
1.3507009
1.0709747
0.81258558
0.62006743
0.53774011
0.56851908
0.64189638
0.71178788
0.75513135
0.74324608
0.8086039
0.70642528
0.64037134
0.5939942
0.58939262
0.58637089
0.60387037
0.62103666
0.66073482
0.74302585
0.91280599
1.1542696
1.4248061
1.6899344
1.9307614
2.1328048
2.2843606
2.3783959
2.4125536
2.3870065
2.3027517
2.1615435
1.967309
1.7281511
1.457703
1.1748019
0.90342922
0.67844328
0.54342565
0.52913018
0.58578488
0.66142239
0.72382305
0.75787185
0.73655491
0.80924067
0.7050086
0.63850311
0.59278587
0.58823013
0.58522651
0.60218286
0.61851835
0.65506817
0.72884008
0.88896223
1.1292917
1.4068384
1.6823892
1.9348391
2.1497023
2.3149893
2.4225658
2.4692046
2.4548618
2.3806542
2.2483186
2.0613249
1.8268864
1.55775
1.2722364
0.99251589
0.74671116
0.57155604
0.50933582
0.53676223
0.6047022
0.6780563
0.73314735
0.75977791
0.73142038
0.80942899
0.70350178
0.63672356
0.59165243
0.58720005
0.58421067
0.60068228
0.61630979
0.65027952
0.71637804
0.8660126
1.1032264
1.3865431
1.6721334
1.9359171
2.1630336
2.3415236
2.4623705
2.5213743
2.51811
2.4537361
2.3299905
2.1499729
1.9200636
1.6520389
1.3637513
1.07714
0.81691567
0.61349416
0.51110598
0.50307841
0.55070032
0.62252845
0.69181485
0.74039316
0.76116164
0.72747193
0.8091449
0.70194345
0.63505127
0.59058995
0.58629078
0.58330311
0.59934883
0.61435863
0.64622076
0.70556566
0.84433664
1.0765615
1.3642259
1.6593276
1.9342063
2.1730813
2.3641881
2.4979339
2.5691357
2.5768458
2.5221873
2.4068971
2.2337579
2.0083881
1.7415229
1.4503391
1.1570222
0.88527357
0.66109449
0.52880062
0.48876766
0.50793945
0.56629198
0.63823023
0.70299763
0.74604519
0.76219696
0.72442096
0.80830667
0.70035456
0.63349633
0.5895907
0.5854925
0.58248781
0.59816407
0.61262164
0.64276197
0.69626588
0.82420615
1.0497693
1.3402375
1.6441612
1.9298986
2.180128
2.3832458
2.5294159
2.6125604
2.6311019
2.5860565
2.4791648
2.3129286
2.0922561
1.8268164
1.5328741
1.2327634
0.95058674
0.70984197
0.55498377
0.49069268
0.48163733
0.51789341
0.58130591
0.65155387
0.71199533
0.75047181
0.76298751
0.72205074
0.80732598
0.69870176
0.63205317
0.58863453
0.58479441
0.5817532
0.5971125
0.61106377
0.63979377
0.68830825
0.80578487
1.0232846
1.3149558
1.6268577
1.9231742
2.1844445
2.3989919
2.557028
2.6517579
2.6809105
2.6453292
2.5467874
2.3875485
2.1718389
1.9082558
1.6119572
1.3050977
1.0127913
0.75776498
0.58477208
0.50263997
0.47080538
0.48311959
0.52953861
0.59476918
0.66260921
0.71919555
0.75395181
0.7635994
0.72019886
0.80727635
0.6973734
0.63066477
0.58769413
0.58417769
0.58108517
0.59618219
0.60965874
0.63722694
0.68151233
0.78913779
0.99748668
1.2887669
1.607671
1.9142102
2.1862794
2.4117398
2.5810328
2.6868937
2.7263447
2.6999961
2.6097035
2.4575647
2.2471473
1.9859702
1.6879472
1.3746486
1.0722255
0.80413236
0.61562528
0.51986823
0.47078335
0.46246622
0.48898252
0.54106548
0.60636888
0.67165647
0.72494215
0.75669659
0.76407631
0.71874581
0.80721853
0.69734207
0.62960514
0.58677514
0.5836137
0.58045607
0.59535982
0.60838796
0.63499182
0.67570403
0.77424785
0.97268933
1.2620495
1.5868797
1.9031886
2.1858549
2.4218029
2.6017345
2.7181909
2.7675382
2.7500925
2.6678497
2.5228616
2.3180807
2.0599311
1.7609924
1.4418701
1.1293746
0.84874196
0.64629945
0.53960244
0.47732411
0.45272463
0.4610573
0.49663755
0.55161016
0.61612151
0.67899718
0.72952374
0.75886676
0.76445062
0.71760194
0.80714673
0.69723222
0.62948314
0.58611903
0.58308741
0.57983532
0.59462018
0.60723152
0.63303588
0.67072724
0.76103746
0.94913446
1.2351595
1.564776
1.8903005
2.1833665
2.4294754
2.6194614
2.7459231
2.8046855
2.7957174
2.7212182
2.58332
2.3844643
2.1299884
1.8310515
1.5070105
1.1847384
0.891677
0.67619716
0.56026873
0.48763506
0.45033654
0.44369535
0.4634663
0.50461507
0.56083729
0.6241937
0.68492162
0.73317525
0.7605867
0.76474614
0.71669868
0.8070619
0.6970551
0.62929383
0.58600526
0.58270917
0.57925811
0.59392876
0.6061537
0.63131415
0.66644861
0.74939016
0.92699261
1.2084205
1.5416564
1.8757495
2.1789897
2.4350219
2.6345466
2.7704036
2.8380356
2.8370407
2.7698662
2.6388848
2.4461359
2.1959031
1.8979325
1.570087
1.238722
0.93320308
0.70511074
0.58094863
0.49993598
0.45269378
0.43403557
0.44029987
0.46771602
0.51214674
0.56869281
0.63080647
0.68968694
0.73608623
0.76195254
0.76498019
0.71598359
0.80696341
0.69682362
0.62903288
0.58588741
0.58260218
0.57892948
0.59329335
0.60511438
0.62977305
0.66274971
0.7391696
0.90637094
1.1821165
1.5178107
1.8597494
2.1728864
2.4386697
2.6473097
2.7919644
2.8678837
2.8743024
2.8139218
2.6895385
2.5029699
2.2574716
1.9613346
1.6309163
1.2915067
0.97367514
0.73309846
0.60115486
0.5130491
0.45796166
0.42976745
0.4248729
0.44021912
0.47261629
0.51888227
0.57526181
0.63618605
0.69351226
0.73840788
0.76303878
0.76516599
0.71541632
0.80684955
0.69654851
0.6287203
0.58576552
0.58247592
0.57882682
0.5929266
0.60415561
0.62835421
0.65950982
0.73022552
0.88732126
1.1564912
1.4935148
1.8425209
2.1652133
2.4406107
2.6580432
2.8109401
2.8945557
2.9077972
2.8535898
2.7353328
2.5548615
2.3145004
2.0210037
1.6891615
1.3430275
1.0134207
0.76040258
0.62072732
0.52622538
0.46480388
0.42912891
0.41519232
0.42032166
0.44193057
0.47749456
0.52470892
0.58068855
0.64054197
0.69657923
0.74026029
0.76390368
0.76531374
0.71496557
0.80672333
0.69623845
0.62836787
0.58564144
0.58232395
0.5787424
0.59278122
0.6036413
0.62706987
0.6566157
0.72238767
0.86984084
1.1317484
1.4690276
1.8242861
2.1561253
2.4410056
2.6670031
2.8276559
2.9183936
2.9378523
2.889138
2.776403
2.6017661
2.3668011
2.0766907
1.7445143
1.3930009
1.0525936
0.78733385
0.63976459
0.53907622
0.47226533
0.43073149
0.40963914
0.40631153
0.41862738
0.44447524
0.48200404
0.52964083
0.5851341
0.64405765
0.69903624
0.7417389
0.76459299
0.7654314
0.71460693
0.80659529
0.69590266
0.62798204
0.58551636
0.58215746
0.5786677
0.59263959
0.60344492
0.6263605
0.65406516
0.71548258
0.85386233
1.1080435
1.4445895
1.8052686
2.1457802
2.4399919
2.6744049
2.8424132
2.9397362
2.9648084
2.920885
2.8129709
2.643743
2.4142379
2.1281398
1.7966859
1.4410847
1.0911428
0.81414874
0.65853069
0.55152645
0.47974698
0.43349202
0.4068553
0.39672989
0.40121893
0.4186066
0.44727777
0.48599423
0.53375393
0.58875424
0.64688867
0.70100359
0.74291962
0.76514278
0.76552518
0.71432125
0.80616188
0.69555816
0.62757629
0.58539101
0.58198185
0.57860117
0.59249184
0.60328325
0.62606301
0.65268625
0.70945133
0.8392782
1.0854597
1.4204085
1.785691
2.1343419
2.4376923
2.6804244
2.8554817
2.9588997
2.9890143
2.9491909
2.845321
2.6809283
2.4567996
2.1751426
1.845367
1.486973
1.1288237
0.84094542
0.67731539
0.56373963
0.48699279
0.43664452
0.40570716
0.39029508
0.3883909
0.39856953
0.41948722
0.45001456
0.48942713
0.53714858
0.59168952
0.64916462
0.70257838
0.74386275
0.76558154
0.7656
0.71409351
0.80518743
0.69461191
0.62718134
0.58526665
0.58179938
0.57854182
0.59234462
0.60313967
0.6258008
0.65210522
0.70612901
0.82611563
1.0640222
1.3966238
1.7657593
2.1219837
2.4342252
2.6852035
2.8670939
2.9761824
3.0108096
2.9744199
2.8737868
2.7135231
2.4945246
2.2176325
1.8902846
1.5303178
1.1653624
0.86762481
0.69629934
0.57598776
0.49403947
0.43976635
0.40531993
0.38588253
0.37895199
0.383166
0.39743609
0.42078507
0.45252085
0.49232495
0.53992925
0.59406199
0.65099215
0.7038387
0.74461631
0.76593188
0.76565971
0.71391183
0.80390617
0.69314479
0.62621042
0.58514739
0.58161661
0.57848872
0.59220024
0.60301141
0.62555459
0.65162102
0.70466491
0.81858011
1.0439225
1.3733082
1.745615
2.1088726
2.4297152
2.6888608
2.8774424
2.9918519
3.0305068
2.9969457
2.8987472
2.741799
2.5275159
2.2555788
1.9313316
1.5707996
1.2004226
0.89397976
0.71546991
0.58849837
0.50109963
0.44276086
0.40513678
0.38256613
0.37182153
0.37128917
0.38001405
0.39719776
0.42221073
0.45472789
0.49473861
0.54219446
0.59597503
0.65245834
0.7048472
0.74521855
0.76621172
0.7657074
0.71376681
0.8025315
0.69202892
0.62471942
0.58489606
0.58144826
0.57844152
0.5920591
0.60289632
0.62532574
0.65119634
0.70343759
0.81516471
1.0319371
1.3507516
1.7253221
2.0951146
2.4242813
2.6915053
2.8866886
3.0061367
3.0484032
3.017138
2.9206037
2.7660836
2.5559362
2.2889923
1.9684563
1.6082575
1.2336671
0.91971895
0.73469059
0.60133259
0.5084055
0.44575787
0.40493601
0.37969635
0.36606719
0.36191572
0.36618433
0.37820614
0.39745236
0.42360192
0.45662204
0.49672974
0.54403218
0.59751488
0.65363387
0.70565414
0.74569995
0.76643532
0.7657455
0.71365101
0.80112853
0.69113574
0.62346187
0.58445257
0.58109643
0.57840003
0.59192451
0.60279244
0.62511303
0.65081948
0.70237099
0.81230823
1.0263001
1.3369252
1.7051759
2.0807266
2.4179805
2.6932285
2.8949697
3.0192376
3.0647718
3.0353394
2.9397613
2.7867485
2.5800068
2.3179259
2.0016062
1.6426313
1.2648554
0.94454047
0.75372127
0.61441113
0.51606663
0.44896192
0.40475559
0.37694686
0.3609876
0.3541353
0.35498067
0.36282801
0.37724495
0.39794873
0.42487611
0.45821904
0.49836069
0.54551845
0.59875268
0.6545759
0.70629975
0.74608481
0.76661402
0.76577595
0.71355849
0.79974457
0.69039603
0.62236169
0.58408591
0.58054789
0.57832076
0.59180364
0.60269906
0.62491444
0.65048161
0.70143097
0.80985357
1.0215573
1.3301746
1.6926483
2.0659583
2.4107674
2.6940462
2.9023915
3.0313369
3.0798566
3.0518607
2.9566114
2.8041965
2.6000059
2.3424802
2.0307579
1.6738074
1.2938925
0.96820606
0.7722839
0.62754935
0.52404233
0.45250498
0.40475095
0.3742661
0.35617843
0.34722733
0.34552788
0.35014718
0.36064741
0.37680022
0.39853643
0.4259988
0.45954855
0.49968952
0.54671762
0.59974664
0.65533052
0.70681629
0.74639254
0.76675688
0.76580029
0.71348457
0.7984148
0.68977359
0.62135298
0.58380106
0.58004815
0.57813625
0.59151883
0.60261551
0.62473066
0.65017553
0.70059153
0.80770935
1.0174775
1.324485
1.6862671
2.0567733
2.4028124
2.6938526
2.9089686
3.0425826
3.0938746
3.0669803
2.97152
2.8188457
2.6162624
2.3628091
2.0559214
1.701692
1.320613
0.99052732
0.79013991
0.64050701
0.53219531
0.45637007
0.40505293
0.37175046
0.35150958
0.34073611
0.33710776
0.33932651
0.34678472
0.3592458
0.37665836
0.3991299
0.42696305
0.46064517
0.50076787
0.5476834
0.60054416
0.65593484
0.70722953
0.74663863
0.76687109
0.76581975
0.71342549
0.79716585
0.68924366
0.62042076
0.58356908
0.57962875
0.57793474
0.59104653
0.60238924
0.62456465
0.6498971
0.69983251
0.80580794
1.013914
1.3195916
1.6808824
2.0518342
2.3980454
2.6927316
2.9145684
3.0530224
3.1070056
3.0809476
2.9848209
2.8311134
2.6291441
2.3791166
2.0771441
1.7262197
1.3448693
1.0112857
0.80709486
0.65305403
0.54032304
0.46045541
0.40565708
0.36951016
0.34701757
0.3344686
0.32923517
0.32966177
0.33485512
0.34444315
0.3583539
0.37668472
0.39968413
0.42777669
0.46154348
0.50164026
0.54846011
0.60118367
0.65641869
0.70756015
0.74683542
0.76696241
0.7658353
0.71337825
0.79601962
0.68878779
0.61956144
0.58337541
0.57924604
0.57778178
0.59057395
0.60197903
0.62411811
0.64964333
0.69914064
0.8040984
1.010756
1.3153232
1.6762484
2.0476571
2.3952059
2.6925014
2.9192072
3.0625368
3.1193303
3.0939754
2.9968168
2.8414032
2.6390464
2.3916525
2.0945084
1.747359
1.3665509
1.0302748
0.82290528
0.66500311
0.54821279
0.46459014
0.40648494
0.36754589
0.34278094
0.32840738
0.32167069
0.32065412
0.32417286
0.33162103
0.3428063
0.35779204
0.37679665
0.40017856
0.42845458
0.46227551
0.50234433
0.54908408
0.60169623
0.65680602
0.70782465
0.74699281
0.76703544
0.76584774
0.71334049
0.79499487
0.68839189
0.61877406
0.58321118
0.5788894
0.57765253
0.59017392
0.60154762
0.62339456
0.64891971
0.69850608
0.80254379
1.007919
1.3115483
1.6722103
2.0440505
2.3927781
2.691978
2.9228379
3.0711079
3.1307545
3.1061812
3.0077695
2.850097
2.6463826
2.4007092
2.1081268
1.7651101
1.3855859
1.0473171
0.83732528
0.67611877
0.55569522
0.46858052
0.40739033
0.36578977
0.33879872
0.32259674
0.31435248
0.31203226
0.31423529
0.32011248
0.3292695
0.34165492
0.35744193
0.37694493
0.40060684
0.42901411
0.46286966
0.50291153
0.5495849
0.60210687
0.65711606
0.70803625
0.7471187
0.76709384
0.76585769
0.71331029
0.79410732
0.68804442
0.61805915
0.58306994
0.57855672
0.57753406
0.58980436
0.60118212
0.62267279
0.64781884
0.69667432
0.80111277
1.0053397
1.3081644
1.6686454
2.040904
2.3906476
2.6914768
2.9244346
3.0773187
3.1412423
3.1175096
3.0178486
2.8575375
2.651575
2.4066203
2.1181465
1.7795014
1.4019302
1.0622675
0.85013289
0.68615408
0.56256565
0.47226998
0.40819901
0.36411354
0.33500277
0.317028
0.30729343
0.30370023
0.30475045
0.30941648
0.3170937
0.32754769
0.34083841
0.35722655
0.3771014
0.40097045
0.42947275
0.46335042
0.50336778
0.5499866
0.60243577
0.65736418
0.70820553
0.74721938
0.76714055
0.76586565
0.71326422
0.79336876
0.68773492
0.61741794
0.58294653
0.57824732
0.57741913
0.58944976
0.600847
0.62204384
0.64676887
0.69403332
0.79692967
1.0029651
1.305096
1.6654592
2.038127
2.3887673
2.6909645
2.9256964
3.0804743
3.14858
3.127919
3.027055
2.8639792
2.6550365
2.4097616
2.1247557
1.7905914
1.4155556
1.0750053
0.86114237
0.6948822
0.5686053
0.47548697
0.40876123
0.36236194
0.33127561
0.31162535
0.30047371
0.29564495
0.29559754
0.29922847
0.305782
0.31483531
0.32627669
0.34025381
0.35709618
0.37725093
0.40127476
0.42984669
0.46373849
0.50373438
0.55030865
0.60269913
0.65756274
0.70834095
0.74729993
0.76717792
0.76587775
0.71318092
0.79278553
0.6874529
0.61685106
0.58283636
0.57796079
0.57730217
0.58910393
0.60052126
0.62145679
0.64585024
0.69162199
0.79093949
0.99601366
1.3022784
1.6625799
2.0356484
2.3870939
2.6904619
2.9266604
3.0830312
3.1525691
3.1349465
3.0353629
2.8695155
2.6571201
2.4105407
2.128189
1.7984699
1.4264454
1.0854225
0.87019709
0.70211098
0.5736129
0.47804588
0.40893063
0.36039049
0.32747784
0.30627479
0.29380602
0.2878348
0.28674343
0.28941011
0.29502266
0.30302587
0.31313403
0.32533027
0.33983087
0.35701898
0.37738619
0.40152681
0.43015032
0.46405117
0.50402868
0.55056671
0.60290997
0.65772163
0.7084493
0.74736436
0.76723552
0.76589959
0.71305261
0.79235698
0.68718684
0.61635743
0.58273494
0.57769693
0.57717828
0.58876257
0.60019228
0.62088448
0.6450031
0.68947631
0.78548635
0.98594789
1.2940314
1.6599468
2.0334153
2.3855922
2.6899786
2.9274085
3.0850771
3.1558146
3.1389893
3.0405864
2.8741683
2.658046
2.4093519
2.128724
1.8032574
1.4345949
1.0934191
0.87715032
0.70767329
0.57741869
0.4797795
0.40854775
0.35807027
0.32347234
0.30084821
0.2871734
0.28016994
0.27814584
0.27991356
0.28466524
0.29180372
0.30092349
0.3118432
0.32461931
0.33952157
0.35697468
0.37750442
0.40173395
0.43039611
0.46430272
0.50426477
0.55077342
0.60307874
0.65784877
0.70853598
0.74746415
0.7673401
0.76593323
0.71285785
0.79207437
0.68692361
0.61593293
0.58263768
0.57745544
0.5770432
0.58842222
0.59985012
0.62031173
0.64418656
0.68748814
0.78049369
0.9766009
1.2820326
1.6522161
2.0313823
2.3842374
2.6895195
2.9279976
3.0867384
3.1584348
3.1422766
3.0438288
2.876391
2.6579424
2.4065042
2.1266602
1.805096
1.4400105
1.0989021
0.8818575
0.7114073
0.57987117
0.48055307
0.40747371
0.35525954
0.31914283
0.29521743
0.28045408
0.27252609
0.26969325
0.27068773
0.27465137
0.28101034
0.28932752
0.29931019
0.31085687
0.32408066
0.33929292
0.35695048
0.37760546
0.40190319
0.43059458
0.46450487
0.50445406
0.55093897
0.60321383
0.6579505
0.70867078
0.74764569
0.76750127
0.7659843
0.71256866
0.79192071
0.68664896
0.61556926
0.58253993
0.57723568
0.57689348
0.58808043
0.5994862
0.61972691
0.64337381
0.68557997
0.77575922
0.96777873
1.2706241
1.6410449
2.0252938
2.3830057
2.6890906
2.9284703
3.0881069
3.16058
3.1449353
3.0464668
2.8780829
2.6562014
2.4022179
2.1222544
1.8041361
1.4427032
1.1017879
0.88418159
0.71314795
0.58081202
0.48024694
0.40560805
0.35183772
0.31436025
0.28927646
0.27352865
0.26478319
0.2612519
0.26161127
0.26492311
0.27057991
0.27818224
0.287413
0.29806504
0.31009816
0.32366931
0.33912213
0.35693835
0.3776904
0.40204084
0.43075453
0.46466717
0.50460576
0.55107152
0.60332194
0.65810925
0.70891646
0.74792557
0.76774613
0.76606011
0.71215296
0.79187137
0.68634804
0.61525397
0.58243727
0.57703623
0.57672681
0.58773602
0.59909372
0.61912041
0.64254427
0.68369956
0.77112091
0.95915901
1.2595628
1.630137
2.0166935
2.3790598
2.6886946
2.9288616
3.0892528
3.1623614
3.1471186
3.0486052
2.8794612
2.6556936
2.3967318
2.1157049
1.8005203
1.4426785
1.1020039
0.88400461
0.71273299
0.58006637
0.47872668
0.40287026
0.34772955
0.30901505
0.28290696
0.26629994
0.25682915
0.25269989
0.25254053
0.25535135
0.26044927
0.26741656
0.27598415
0.28592556
0.29709885
0.30951099
0.32335291
0.33899331
0.35693327
0.377761
0.40215239
0.43088322
0.46479737
0.50472729
0.55117765
0.60349111
0.65839905
0.70929537
0.74835096
0.76811012
0.76616909
0.71158221
0.79189603
0.6860063
0.61497083
0.58232588
0.57685469
0.57654238
0.58738911
0.59866823
0.6184852
0.64168127
0.68180947
0.76645729
0.95046192
1.2484541
1.6192884
2.0080026
2.373765
2.6869432
2.9291972
3.090232
3.1638636
3.1489387
3.0503714
2.8805853
2.6552975
2.3939589
2.1077556
1.7943566
1.4399257
1.0994837
0.88123431
0.71001294
0.57744687
0.47582809
0.39916595
0.3428898
0.30304738
0.27600719
0.25865952
0.2485743
0.24393042
0.24334945
0.24578323
0.25048342
0.25696346
0.26494892
0.27426859
0.28476476
0.29634548
0.30905411
0.32310796
0.33889529
0.35693218
0.37781917
0.40224256
0.43098666
0.46490177
0.50482463
0.5513441
0.60380033
0.65884621
0.70987161
0.74898382
0.76863423
0.76631866
0.71084558
0.79196044
0.68560975
0.61470089
0.58220289
0.57668751
0.57634115
0.58704107
0.59820833
0.61781747
0.64077247
0.67988433
0.76167866
0.9414573
1.2369302
1.608103
1.9990993
2.3680831
2.6849638
2.9293671
3.0910881
3.1651532
3.1504809
3.0518578
2.8815355
2.655003
2.3916868
2.1032972
1.7862833
1.4344342
1.0941536
0.87580897
0.70486258
0.57276232
0.4713578
0.39436449
0.337269
0.29643767
0.26852665
0.25051288
0.23991928
0.23485994
0.23393457
0.23608741
0.24052164
0.24668358
0.25423738
0.2630168
0.27292448
0.28385523
0.29575553
0.30869693
0.32291728
0.33882009
0.35693322
0.37786679
0.40231528
0.43106973
0.46498545
0.50497777
0.55164878
0.60427775
0.65952673
0.71072962
0.74989606
0.7693555
0.76651155
0.70996634
0.79202843
0.68514574
0.61442384
0.58206639
0.57653012
0.5761259
0.58669418
0.59771622
0.61711726
0.63981059
0.67791118
0.75672747
0.931959
1.2246624
1.5961893
1.9896402
2.3619958
2.6824115
2.9301789
3.092682
3.1662834
3.151811
3.0531329
2.8823648
2.6548199
2.3898665
2.0995611
1.7815043
1.4266704
1.0859898
0.86768101
0.69720146
0.56583643
0.46509641
0.38829063
0.33078286
0.28917511
0.26046266
0.24181645
0.23077686
0.2253971
0.22421715
0.22616207
0.2304269
0.23640969
0.24370696
0.25209816
0.26149887
0.27186782
0.28314008
0.29529185
0.30841657
0.32276813
0.338762
0.35693528
0.37790559
0.40237385
0.43113638
0.46511773
0.50525861
0.55211956
0.60500497
0.6605411
0.71196796
0.75115333
0.77028915
0.76674147
0.70900873
0.79206374
0.68460295
0.61411949
0.58191533
0.57637716
0.57590085
0.58635119
0.59719778
0.61638869
0.63879409
0.67588933
0.75158195
0.92183258
1.2113606
1.5831788
1.979267
2.355245
2.6793714
2.9303653
3.0954006
3.1687634
3.1529828
3.0542485
2.8831112
2.6547448
2.3884525
2.0965134
1.7773916
1.4218682
1.0765621
0.85685731
0.68696047
0.55653708
0.45682161
0.38071806
0.32329313
0.28122204
0.25183289
0.23257923
0.22111005
0.21546178
0.21411259
0.21593225
0.22009789
0.22599937
0.23318526
0.24136769
0.2504143
0.26030279
0.27103466
0.28257607
0.29492627
0.30819575
0.32265098
0.33871687
0.3569377
0.37793706
0.40242094
0.43124263
0.465361
0.50569304
0.55283755
0.60609044
0.66200739
0.71367766
0.75278408
0.77140749
0.76699141
0.70806373
0.79203093
0.68397078
0.61376883
0.58174912
0.57622288
0.57567108
0.5860148
0.59666214
0.61563982
0.63772798
0.67382986
0.74625893
0.91101064
1.1967881
1.5687263
1.9676274
2.3475429
2.6756863
2.9301
3.0975769
3.1724106
3.1558967
3.0552498
2.8838012
2.6547695
2.3873909
2.0940917
1.7739791
1.4176148
1.0698857
0.84510537
0.67412706
0.54473679
0.4463421
0.37139791
0.31458789
0.2724849
0.24263803
0.22283902
0.2109373
0.20502365
0.20354735
0.2053188
0.2094625
0.21535095
0.22252497
0.23064897
0.23952399
0.24908528
0.25935785
0.27037603
0.28213011
0.29463725
0.30802132
0.32255867
0.33868162
0.35694015
0.37796253
0.40249729
0.43143895
0.46573797
0.50635677
0.55391123
0.6076627
0.6640363
0.71590034
0.7547422
0.77263027
0.76723758
0.70721763
0.79189594
0.68323945
0.61335469
0.58156737
0.57606147
0.57544168
0.58568714
0.59612043
0.61488174
0.6366238
0.67175383
0.7408138
0.89950729
1.180787
1.5525278
1.9543771
2.3385955
2.6711623
2.9293288
3.0994455
3.175696
3.1596027
3.0582458
2.8844639
2.6548853
2.3866309
2.0922177
1.7712361
1.4140304
1.0641513
0.83695784
0.66049987
0.53040059
0.43347285
0.36008721
0.30441555
0.26278152
0.23282664
0.21262505
0.20031162
0.19410992
0.19249771
0.19425399
0.19844589
0.20439454
0.21162359
0.21979042
0.22864845
0.23806724
0.2480339
0.25860966
0.26985426
0.28177673
0.29440825
0.3078832
0.32248573
0.33865396
0.35694242
0.37800588
0.40263969
0.43174403
0.46631545
0.50735194
0.55547064
0.60984445
0.66668172
0.71857678
0.75688914
0.77384191
0.76745762
0.70652398
0.79162598
0.68239886
0.61286197
0.58136972
0.57588743
0.57521711
0.58536939
0.59558437
0.61412708
0.63549864
0.66968915
0.73533472
0.88742792
1.1633087
1.5343515
1.9391958
2.3281021
2.6655899
2.9279593
3.1010423
3.1788845
3.1631678
3.0613151
2.8873326
2.6550979
2.3861273
2.0908139
1.7690991
1.41113
1.059359
0.83007099
0.651112
0.51529854
0.41816467
0.34656187
0.29249513
0.25187751
0.22225261
0.20191987
0.18928349
0.18278639
0.18099923
0.18272035
0.18698534
0.19305869
0.20041297
0.20868849
0.21763248
0.22706676
0.23691374
0.24720048
0.25801614
0.26944017
0.28149622
0.2942265
0.30777364
0.32242795
0.33863218
0.35695041
0.3780887
0.40286209
0.43221335
0.46718476
0.50880298
0.55764293
0.61270006
0.66987878
0.72152066
0.75902252
0.77493109
0.76763785
0.70599568
0.79118813
0.68143734
0.61227761
0.58115573
0.57569566
0.57500069
0.58506148
0.59506452
0.61338826
0.63437327
0.66766693
0.72993082
0.87496799
1.1444408
1.5140757
1.9218184
2.3157692
2.6587424
2.9258807
3.1023712
3.1820826
3.1668626
3.0644651
2.8893024
2.6577755
2.3858672
2.0898123
1.7674981
1.4088762
1.055442
0.82437497
0.64321107
0.50496953
0.40211998
0.33073479
0.27858493
0.23946988
0.21071139
0.19061252
0.17786149
0.17112074
0.16912941
0.17076133
0.17506899
0.18128478
0.18882424
0.19727638
0.20637136
0.21592561
0.22581363
0.23599868
0.24653874
0.25754459
0.26911103
0.28127322
0.29408201
0.30768658
0.32238209
0.33860355
0.35696941
0.37821969
0.40320687
0.43292432
0.46845964
0.51083543
0.5605009
0.61616762
0.67340972
0.72445539
0.76094527
0.7758273
0.76777509
0.70561576
0.79054606
0.68033943
0.61158964
0.58092488
0.57548155
0.57479443
0.58476208
0.59456907
0.61267564
0.63326916
0.66571734
0.72471628
0.86239459
1.1244223
1.4917292
1.9020749
2.3013363
2.6503848
2.9229593
3.1034203
3.1853749
3.1708407
3.0679476
2.8915377
2.6584297
2.3884848
2.089192
1.7663692
1.4072139
1.0522919
0.81975299
0.63669088
0.49630411
0.39128004
0.31422373
0.26252457
0.22531648
0.19789526
0.17853391
0.16596532
0.15914221
0.15697106
0.15846522
0.16274748
0.16906585
0.17680216
0.18548723
0.19479938