/*--------------------------------*- C++ -*----------------------------------*\
| =========                 |                                                 |
| \\      /  F ield         | OpenFOAM: The Open Source CFD Toolbox           |
|  \\    /   O peration     | Version:  2206                                  |
|   \\  /    A nd           | Website:  www.openfoam.com                      |
|    \\/     M anipulation  |                                                 |
\*---------------------------------------------------------------------------*/
FoamFile
{
    version     2.0;
    format      ascii;
    arch        "LSB;label=32;scalar=64";
    class       volScalarField;
    location    "0";
    object      p_0;
}
// * * * * * * * * * * * * * * * * * * * * * * * * * * * * * * * * * * * * * //

dimensions      [1 -1 -2 0 0 0 0];

internalField   nonuniform List<scalar> 
19794
(
101282.39
101233.28
101302.85
101203.59
101280.62
101296.23
101172.13
101271.9
101260.88
101297.99
101143.82
101263.45
101241.93
101267.4
101297.1
101118.28
101259.13
101220.54
101255.32
101263.79
101296.42
101096.7
101257.12
101201.46
101242.59
101250.31
101262.73
101295.38
101079.04
101256.91
101183.49
101234.59
101234.52
101251.46
101260.42
101294.12
101063.94
101257.72
101168.1
101228.49
101222.35
101238.39
101250.19
101257.78
101292.68
101050.9
101258.31
101155.6
101224.66
101210.74
101230.36
101237.7
101248.85
101254.83
101291.01
101038.09
101258.28
101145.47
101222.63
101201.05
101223.32
101230.49
101237.51
101247.16
101251.75
101289.09
101025.26
101256.42
101136.64
101221.53
101193.62
101218.29
101223.54
101232.27
101236.75
101245.21
101248.67
101286.85
101012.05
101252.77
101128.04
101220.06
101187.73
101215.52
101217.95
101227.22
101233.11
101235.49
101243.08
101245.64
101284.24
100998.4
101247.52
101119.15
101217.03
101182.51
101213.92
101214.37
101223.42
101229.44
101233.17
101233.79
101240.83
101242.65
101281.21
100984.58
101241.1
101109.7
101211.9
101176.58
101212.42
101211.8
101221.74
101226.79
101230.74
101232.47
101231.75
101238.44
101239.63
101277.76
100971.01
101234.12
101099.68
101204.79
101169.32
101209.4
101209.32
101220.94
101226.23
101229.27
101231.03
101231.1
101229.46
101235.91
101236.53
101273.88
100957.96
101227.11
101089.33
101196.1
101160.69
101204.09
101205.32
101220.15
101226.34
101229.84
101230.63
101230.43
101229.23
101226.98
101233.18
101233.32
101269.58
100945.56
101220.37
101079
101186.57
101150.87
101196.51
101199.02
101217.54
101226.25
101230.98
101232.24
101230.97
101229.14
101226.96
101224.3
101230.24
101229.98
101264.83
100933.89
101214.11
101068.92
101176.9
101140.36
101187.08
101190.46
101212.23
101224.08
101231.81
101234.4
101233.43
101230.45
101227.29
101224.34
101221.41
101227.09
101226.56
101259.61
100922.99
101208.43
101059.23
101167.52
101129.68
101176.58
101180.03
101204.23
101218.87
101230.39
101236.1
101236.57
101233.64
101229.26
101224.97
101221.4
101218.33
101223.79
101223.06
101253.82
100912.83
101203.38
101050.02
101158.7
101119.2
101165.76
101168.52
101194
101210.65
101225.68
101235.38
101239.05
101237.69
101233.05
101227.49
101222.22
101218.14
101215.1
101220.41
101219.43
101247.34
100903.39
101198.95
101041.33
101150.64
101109.13
101155.17
101156.66
101182.42
101199.97
101217.72
101231.12
101238.99
101240.87
101237.97
101231.83
101225.2
101219.07
101214.63
101211.86
101217.05
101215.61
101240
100894.62
101195.1
101033.16
101143.39
101099.63
101145.1
101145.04
101170.36
101187.78
101207.15
101223.39
101235.19
101241.41
101241.79
101237.54
101230.1
101222.44
101215.63
101211.03
101208.73
101213.75
101211.52
101231.68
100886.51
101191.81
101025.49
101136.98
101090.77
101135.77
101133.95
101158.48
101174.99
101194.99
101212.95
101227.74
101238.06
101242.88
101241.93
101236.49
101227.93
101219.33
101212.05
101207.54
101205.78
101210.48
101207.06
101222.29
100879.03
101189.01
101018.3
101131.35
101082.54
101127.27
101123.6
101147.14
101162.31
101182.17
101200.84
101217.52
101230.95
101240.01
101243.57
101241.46
101234.87
101225.37
101216.04
101208.57
101204.3
101202.99
101207.04
101202.06
101211.88
100872.14
101186.67
101011.55
101126.46
101074.91
101119.6
101114.06
101136.54
101150.1
101169.42
101188.03
101205.61
101221.06
101233.31
101241.23
101243.65
101240.44
101232.78
101222.53
101212.78
101205.38
101201.45
101200.28
101203.17
101196.47
101200.76
100865.86
101184.73
101005.22
101122.25
101067.83
101112.75
101105.32
101126.82
101138.6
101157.12
101175.22
101192.95
101209.46
101223.84
101235.06
101241.94
101243.21
101238.94
101230.36
101219.62
101209.77
101202.57
101198.88
101197.49
101198.6
101190.48
101189.66
100860.1
101183.14
100999.29
101118.65
101061.26
101106.66
101097.32
101117.99
101127.93
101145.48
101162.82
101180.22
101197.03
101212.61
101226.13
101236.46
101242.26
101242.38
101237.09
101227.83
101216.87
101207.13
101200.16
101196.45
101194.4
101193.33
101184.19
101179.5
100854.88
101181.9
100993.75
101115.61
101055.15
101101.26
101090
101110.01
101118.13
101134.6
101151.01
101167.86
101184.44
101200.47
101215.38
101228.21
101237.65
101242.29
101241.25
101235.11
101225.42
101214.46
101204.89
101198.06
101194.04
101191.34
101186.9
101178.63
101171.08
100850.14
101180.91
100988.57
101113.07
101049.46
101096.5
101083.29
101102.82
101109.17
101124.54
101139.87
101156.05
101172.15
101188.06
101203.59
101218.03
101230.21
101238.7
101242.12
101240.01
101233.28
101223.36
101212.46
101202.99
101196.14
101191.44
101186.55
101182.28
101174.22
101165.17
100845.85
101180.2
100983.73
101110.97
101044.16
101092.31
101077.12
101096.36
101101
101115.27
101129.45
101144.87
101160.37
101175.85
101191.38
101206.63
101220.67
101232.18
101239.64
101241.89
101238.93
101231.79
101221.72
101210.83
101201.33
101194.26
101187.96
101186.05
101174.81
101173.42
101161.46
100841.96
101179.71
100979.24
101109.26
101039.2
101088.64
101071.42
101090.55
101093.54
101106.74
101119.72
101134.34
101149.16
101164.06
101179.21
101194.61
101209.69
101223.32
101234.07
101240.51
101241.79
101238.22
101230.76
101220.48
101209.49
101199.82
101192.13
101188.5
101177.45
101174.33
101172.84
101158.44
100838.44
101179.42
100975.03
101107.9
101034.58
101085.43
101066.15
101085.31
101086.73
101098.92
101110.63
101124.45
101138.55
101152.8
101167.36
101182.46
101197.86
101212.76
101225.9
101235.89
101241.45
101241.98
101237.96
101230.11
101219.53
101208.35
101198.32
101193.53
101179.44
101180.83
101172.09
101172.67
101155.98
100835.25
101179.31
100971.13
101106.86
101030.26
101082.65
101061.27
101080.6
101080.5
101091.75
101102.16
101115.15
101128.51
101142.08
101155.98
101170.49
101185.7
101201.12
101215.76
101228.39
101237.7
101242.58
101242.53
101238.04
101229.7
101218.74
101207.25
101199.6
101186.73
101185.81
101178.29
101170.99
101172.63
101153.99
100832.36
101179.41
100967.49
101106.1
101026.23
101080.25
101056.72
101076.36
101074.78
101085.19
101094.24
101106.42
101119.01
101131.88
101145.08
101158.89
101173.56
101188.93
101204.31
101218.66
101230.85
101239.64
101243.96
101243.36
101238.29
101229.39
101217.82
101208.77
101194.99
101193.78
101183.65
101177.7
101170.29
101172.58
101152.4
100829.68
101179.76
100964.09
101105.57
101022.48
101078.2
101052.5
101072.55
101069.52
101079.2
101086.85
101098.2
101110.01
101122.18
101134.66
101147.72
101161.68
101176.6
101192.11
101207.42
101221.57
101233.47
101241.84
101245.57
101244.32
101238.58
101228.68
101219.59
101205.64
101202.25
101192.6
101183.98
101177.36
101169.78
101172.52
101151.12
100827.1
101180.27
100960.9
101105.29
101018.96
101076.45
101048.56
101069.13
101064.67
101073.73
101079.95
101090.47
101101.47
101112.93
101124.68
101136.98
101150.15
101164.4
101179.61
101195.26
101210.6
101224.74
101236.45
101244.34
101247.35
101245.35
101238.27
101230.92
101216.77
101212.8
101202.46
101193.87
101184.1
101177.15
101169.4
101172.45
101150.1
100824.74
101180.36
100957.95
101105.27
101015.67
101074.99
101044.9
101066.07
101060.17
101068.74
101073.52
101083.2
101093.35
101104.1
101115.12
101126.65
101138.99
101152.46
101167.11
101182.66
101198.58
101214.16
101228.43
101239.92
101247.14
101249.27
101245.7
101241.17
101228.07
101224.48
101213.83
101204.59
101194.75
101184.15
101177.03
101169.1
101172.38
101149.29
100823.29
101179.62
100955.32
101105.43
101012.6
101073.8
101041.48
101063.34
101056
101064.21
101067.53
101076.36
101085.64
101095.67
101105.94
101116.68
101128.2
101140.82
101154.75
101169.91
101185.96
101202.4
101218.43
101232.8
101243.84
101250.17
101250.54
101249.35
101238.5
101236.33
101226.12
101216.44
101206.32
101195.5
101184.18
101176.98
101168.87
101172.31
101148.64
100823.25
101180.59
100952.94
101105.41
101009.76
101072.87
101038.29
101060.9
101052.12
101060.08
101061.96
101069.96
101078.3
101087.61
101097.12
101107.06
101117.73
101129.49
101142.61
101157.19
101173.06
101189.9
101207.08
101223.59
101237.82
101248.11
101252.59
101254.99
101247.2
101247.28
101238.18
101229.22
101218.75
101207.72
101196.09
101184.23
101176.96
101168.69
101172.25
101148.12
100819.46
101186.35
100950.16
101104.98
101007.19
101072.16
101035.33
101058.74
101048.5
101056.33
101056.79
101063.97
101071.33
101079.91
101088.63
101097.75
101107.56
101118.43
101130.7
101144.57
101160.05
101176.97
101194.85
101212.86
101229.58
101243.33
101251.79
101257.96
101253.64
101256.3
101249.22
101241.56
101231.94
101220.67
101208.85
101196.56
101184.29
101176.95
101168.55
101172.19
101147.71
100817.91
101186.96
100947.68
101105.63
101004.81
101071.38
101032.6
101056.88
101045.14
101052.91
101051.99
101058.38
101064.71
101072.57
101080.48
101088.75
101097.66
101107.61
101118.99
101132.08
101147.02
101163.78
101182.04
101201.08
101219.62
101236.22
101248.25
101258.25
101257.64
101262.85
101258.25
101252.77
101244.54
101234.18
101222.24
101209.72
101196.91
101184.36
101176.95
101168.43
101172.15
101147.38
100817.07
101188.09
100944.76
101108.94
101002.13
101070.4
101030.08
101055.25
101042.02
101049.82
101047.54
101053.17
101058.43
101065.56
101072.64
101080.06
101088.03
101097.02
101107.46
101119.69
101133.99
101150.43
101168.81
101188.55
101208.41
101227.21
101242.24
101255.93
101259.1
101267.03
101264.86
101261.87
101255.89
101247
101235.99
101223.48
101210.4
101197.2
101184.42
101176.95
101168.34
101172.11
101147.12
100816.17
101189.29
100943.19
101109.67
101000.05
101070.23
101027.65
101053.65
101039.15
101047.04
101043.41
101048.33
101052.48
101058.89
101065.13
101071.67
101078.66
101086.64
101096.08
101107.39
101120.94
101136.93
101155.26
101175.45
101196.28
101216.78
101234.14
101251.13
101257.97
101268.94
101269.21
101268.51
101265.03
101258.47
101249
101237.44
101224.45
101210.92
101197.42
101184.47
101176.95
101168.27
101172.07
101146.91
100815.28
101190.39
100942.09
101110.4
100998.22
101072.18
101025.1
101051.94
101036.44
101044.52
101039.61
101043.86
101046.86
101052.57
101057.93
101063.59
101069.57
101076.49
101084.86
101095.17
101107.87
101123.27
101141.41
101161.88
101183.44
101205.31
101224.42
101244.13
101254.28
101268.56
101271.38
101272.99
101271.71
101267.66
101260.55
101250.57
101238.56
101225.19
101211.33
101197.61
101184.52
101176.95
101168.21
101172.04
101146.74
100814.68
101191.44
100940.98
101111.12
100997.1
101072.54
101023.52
101050.88
101033.75
101042.11
101036.11
101039.76
101041.57
101046.57
101051.05
101055.83
101060.77
101066.57
101073.79
101083
101094.75
101109.43
101127.25
101147.86
101170
101193.02
101213.48
101235.35
101248.25
101265.73
101271.23
101275.39
101276.29
101274.38
101269.79
101262.19
101251.79
101239.43
101225.77
101211.64
101197.76
101184.56
101176.95
101168.16
101172.02
101146.6
100814.85
101192.41
100939.85
101111.8
100996.25
101072.89
101022.1
101051.9
101031.14
101039.7
101032.81
101036
101036.63
101040.92
101044.48
101048.39
101052.26
101056.9
101062.91
101070.91
101081.59
101095.41
101112.76
101133.37
101155.99
101180.07
101201.61
101225.2
101240.28
101260.49
101268.52
101275.54
101278.89
101279.07
101276.57
101271.48
101263.46
101252.72
101240.1
101226.21
101211.89
101197.88
101184.59
101176.96
101168.12
101172
101146.5
100816.04
101193.03
100938.92
101112.46
100995.42
101073.24
101021.24
101051.74
101029.98
101037.84
101029.58
101032.4
101032.02
101035.66
101038.24
101041.26
101044.06
101047.51
101052.23
101058.93
101068.4
101081.2
101097.94
101118.37
101141.43
101166.47
101188.98
101214.14
101230.83
101253.11
101263.24
101273.1
101279.28
101281.86
101281.39
101278.33
101272.79
101264.43
101253.43
101240.61
101226.55
101212.09
101197.97
101184.62
101176.96
101168.09
101171.99
101146.41
100813.77
101192.72
100938.74
101113.08
100994.61
101073.58
101020.58
101051.71
101028.73
101037.99
101026.63
101028.82
101027.51
101030.76
101032.41
101034.5
101036.19
101038.42
101041.8
101047.09
101055.23
101066.83
101082.79
101102.87
101126.28
101152.15
101175.62
101202.53
101220.32
101244.09
101255.7
101268
101277
101282.46
101284.35
101283.26
101279.71
101273.8
101265.16
101253.98
101241
101226.82
101212.24
101198.05
101184.64
101176.96
101168.06
101171.97
101146.34
100813.38
101189.41
100939.8
101113.52
100993.91
101073.89
101019.96
101051.75
101027.98
101037.37
101025.48
101025.84
101022.78
101025.84
101026.91
101028.18
101028.68
101029.65
101031.63
101035.43
101042.1
101052.33
101067.34
101086.86
101110.55
101136.94
101161.82
101190.44
101209.02
101234.03
101246.45
101260.55
101271.95
101280.32
101285.14
101286.4
101284.75
101280.77
101274.56
101265.72
101254.39
101241.31
101227.03
101212.36
101198.11
101184.66
101176.95
101168.04
101171.96
101146.29
100812.61
101189.9
100938.94
101113.43
100993.65
101074.2
101019.36
101051.78
101027.42
101037.02
101024.18
101025.54
101018.6
101020.36
101021.24
101022.21
101021.63
101021.27
101021.77
101024
101029.09
101037.75
101051.63
101070.38
101094.05
101120.82
101147.48
101177.35
101197.13
101223.53
101236.18
101251.38
101264.44
101275.3
101283.13
101287.36
101288.04
101285.92
101281.59
101275.14
101266.14
101254.71
101241.54
101227.2
101212.46
101198.16
101184.67
101176.95
101168.02
101171.95
101146.24
100811.78
101190.54
100938.36
101111.96
100994.13
101074.4
101018.87
101051.8
101026.9
101036.78
101023.4
101024.18
101018.55
101015.75
101014.64
101015.93
101014.93
101013.36
101012.3
101012.83
101016.23
101023.15
101035.73
101053.43
101076.85
101104.01
101132.49
101163.25
101185.09
101212.95
101225.48
101241.31
101255.18
101267.71
101278.13
101285.46
101289.16
101289.34
101286.82
101282.21
101275.58
101266.47
101254.96
101241.73
101227.33
101212.54
101198.2
101184.68
101176.95
101168.01
101171.95
101146.2
100811.09
101191
100937.42
101112.16
100993.24
101074.3
101018.69
101051.85
101026.42
101036.56
101022.82
101023.43
101016.04
101017.86
101009.06
101008.4
101007.78
101005.82
101003.33
101002.04
101003.6
101008.61
101019.7
101035.91
101059.02
101086.39
101116.57
101148.31
101172.96
101202.04
101214.45
101231.01
101245.11
101258.37
101270.49
101280.5
101287.37
101290.59
101290.35
101287.51
101282.69
101275.92
101266.72
101255.16
101241.87
101227.43
101212.6
101198.23
101184.69
101176.95
101168
101171.94
101146.16
100810.56
101191.41
100936.51
101112.49
100992.41
101073.13
101018.97
101051.91
101026.04
101036.36
101022.29
101022.93
101014.89
101014.07
101013.04
101002.2
100999.1
100997.73
100994.72
100991.74
100991.31
100994.19
101003.61
101018
101040.75
101067.9
101099.66
101132.53
101160.27
101189.89
101202.85
101220.66
101234.95
101248.33
101261.07
101272.81
101282.44
101288.9
101291.72
101291.14
101288.05
101283.05
101276.18
101266.91
101255.31
101241.99
101227.51
101212.65
101198.26
101184.69
101176.95
101167.99
101171.93
101146.12
100810.16
101191.81
100935.7
101112.78
100991.43
101072.95
101017.82
101051.88
101025.9
101036.21
101021.82
101022.47
101014.19
101012.77
101007.31
101008.61
100991.96
100987.87
100985.5
100981.83
100979.51
100980.04
100987.55
100999.85
101021.99
101048.56
101081.84
101115.85
101146.8
101177.04
101191.31
101210.04
101224.73
101238.35
101251.06
101263.32
101274.72
101284.02
101290.11
101292.6
101291.75
101288.46
101283.34
101276.38
101267.07
101255.43
101242.08
101227.58
101212.69
101198.28
101184.7
101176.95
101167.98
101171.91
101146.06
100809.88
101192.15
100935.01
101113.04
100990.52
101072.93
101016.92
101050.62
101026.07
101036.14
101021.45
101022.06
101013.53
101012.17
101005.8
101000.97
101000.25
100979.75
100974.28
100971.25
100968.12
100966.34
100971.64
100981.53
101002.78
101028.4
101063.09
101098.12
101132.49
101163.67
101179.47
101198.77
101214.08
101228.39
101241.27
101253.34
101265.19
101276.28
101285.28
101291.07
101293.29
101292.23
101288.79
101283.56
101276.54
101267.19
101255.52
101242.15
101227.63
101212.72
101198.29
101184.7
101176.95
101167.98
101171.86
101145.99
100809.71
101192.41
100934.44
101113.29
100989.71
101072.9
101015.91
101050.15
101024.59
101036.1
101021.27
101021.75
101012.98
101011.53
101005.24
100999.45
100990.68
100989.66
100964.93
100958.47
100956.02
100953.04
100956.13
100963.19
100983.22
101007.48
101043.44
101079.28
101117.32
101149.73
101166.93
101186.56
101202.79
101217.98
101231.54
101243.71
101255.23
101266.72
101277.55
101286.28
101291.82
101293.83
101292.6
101289.04
101283.74
101276.67
101267.28
101255.59
101242.21
101227.67
101212.74
101198.3
101184.7
101176.95
101167.97
101171.78
101145.91
100809.63
101192.6
100933.97
101113.49
100989.02
101072.88
101014.97
101049.78
101023.62
101034.75
101021.26
101021.61
101012.67
101011.08
101004.55
100999.02
100989.12
100978.46
100975.84
100947.55
100941.56
100939.03
100941
100945.11
100963.47
100985.85
101022.89
101059.25
101101.2
101135.12
101153.71
101173.94
101191.12
101206.91
101221.29
101234.18
101245.74
101256.79
101267.96
101278.56
101287.07
101292.4
101294.25
101292.89
101289.24
101283.87
101276.77
101267.35
101255.65
101242.25
101227.7
101212.76
101198.31
101184.7
101176.96
101167.95
101171.66
101145.85
100809.59
101192.7
100933.61
101113.63
100988.42
101072.85
101014.14
101049.42
101022.6
101034
101019.7
101021.55
101012.7
101010.98
101004.17
100998.36
100988.75
100976.83
100963.33
100958.72
100928.89
100922.49
100925.15
100927.37
100943.82
100963.63
101001.5
101037.89
101084.07
101119.74
101139.83
101160.95
101178.96
101195.27
101210.28
101224.05
101236.38
101247.42
101258.06
101268.97
101279.37
101287.7
101292.86
101294.57
101293.12
101289.39
101283.98
101276.84
101267.41
101255.7
101242.29
101227.73
101212.77
101198.31
101184.71
101176.99
101167.9
101171.55
101146.17
100809.56
101192.72
100933.35
101113.71
100987.93
101072.78
101013.42
101049.07
101021.63
101033.3
101018.63
101019.7
101012.92
101011.36
101004.29
100998.1
100988.03
100976.47
100961.49
100945.28
100939.72
100907.45
100906.63
100908.92
100924.41
100941.12
100979.37
101015.1
101065.87
101103.48
101125.23
101147.54
101166.41
101183.22
101198.71
101213.08
101226.35
101238.2
101248.79
101259.09
101269.78
101280.01
101288.19
101293.23
101294.83
101293.3
101289.52
101284.07
101276.91
101267.46
101255.74
101242.32
101227.75
101212.78
101198.31
101184.76
101177.06
101167.86
101171.98
101146.01
100809.5
101192.69
100933.17
101113.73
100987.53
101072.68
101012.79
101048.74
101020.77
101032.62
101017.54
101018.72
101009.43
101011.84
101004.96
100998.39
100987.83
100975.69
100961.04
100943.03
100925.8
100916.69
100889.31
100887.71
100904.25
100918.57
100956.81
100990.88
101046.53
101086.17
101109.79
101133.64
101153.56
101170.96
101186.78
101201.54
101215.4
101228.24
101239.68
101249.9
101259.92
101270.42
101280.52
101288.58
101293.51
101295.03
101293.44
101289.61
101284.14
101276.95
101267.5
101255.77
101242.34
101227.76
101212.78
101198.36
101184.95
101177.16
101168
101171.86
101145.97
100809.39
101192.63
100933.06
101113.69
100987.21
101072.54
101012.24
101048.4
101020.01
101031.97
101016.5
101017.68
101008.68
101005.68
101005.6
100999.2
100988.17
100975.48
100960.15
100942.42
100922.95
100902.53
100896.62
100867.19
100881.25
100895.14
100934.06
100965.43
101026.01
101067.56
101093.34
101119.1
101140.39
101158.56
101174.75
101189.7
101203.87
101217.3
101229.78
101240.89
101250.79
101260.58
101270.94
101280.92
101288.89
101293.74
101295.19
101293.55
101289.69
101284.19
101276.99
101267.53
101255.79
101242.35
101227.76
101212.81
101198.6
101185.28
101176.97
101167.98
101171.83
101145.93
100809.2
101192.56
100932.99
101113.6
100986.97
101072.34
101011.76
101048.03
101019.32
101031.36
101015.57
101016.62
101007.52
101006.08
100995.86
100999.8
100988.99
100975.81
100959.88
100941.39
100922.08
100898.82
100882.66
100871.01
100858.57
100868.72
100910.32
100939.02
101004.43
101047.31
101075.62
101103.72
101126.78
101146.04
101162.74
101177.87
101192.09
101205.77
101218.84
101231.04
101241.86
101251.51
101261.12
101271.35
101281.25
101289.13
101293.91
101295.32
101293.64
101289.75
101284.23
101277.03
101267.55
101255.81
101242.36
101227.78
101213.04
101199.09
101184.77
101177.02
101167.96
101171.84
101145.87
100808.95
101192.52
100932.94
101113.48
100986.79
101072.11
101011.35
101047.64
101018.69
101030.75
101014.71
101015.63
101006.14
101005.22
100998.11
100986.57
100989.44
100976.56
100960.15
100941.03
100920.89
100897.51
100878.04
100856.98
100859.59
100841.63
100883.49
100911.08
100982.02
101025.28
101056.28
101087.19
101112.49
101133.26
101150.78
101166.2
101180.42
101194.03
101207.32
101220.1
101232.05
101242.65
101252.09
101261.54
101271.67
101281.5
101289.32
101294.06
101295.42
101293.71
101289.8
101284.27
101277.05
101267.57
101255.81
101242.37
101227.99
101213.59
101198.44
101184.81
101177.02
101167.95
101171.86
101145.77
100808.64
101192.53
100932.9
101113.35
100986.66
101071.83
101011
101047.21
101018.1
101030.14
101013.9
101014.68
101004.84
101003.65
100997.53
100991.2
100973.02
100976.83
100960.8
100941.23
100920.43
100896.13
100876.19
100851.11
100846.22
100836.47
100855.85
100879.63
100958.09
101001.57
101035.12
101069.1
101097.22
101119.99
101138.74
101154.72
101169.03
101182.49
101195.61
101208.56
101221.11
101232.87
101243.28
101252.55
101261.88
101271.94
101281.7
101289.48
101294.17
101295.5
101293.77
101289.84
101284.29
101277.07
101267.57
101255.83
101242.54
101228.49
101212.93
101198.45
101184.84
101177.01
101167.93
101171.87
101145.62
100808.31
101192.6
100932.84
101113.23
100986.57
101071.53
101010.69
101046.76
101017.56
101029.5
101013.12
101013.75
101003.63
101002.17
100995.62
100990.85
100980.12
100957.76
100960.87
100941.78
100920.57
100895.55
100874.59
100848.38
100839.48
100822.1
100848.87
100845.75
100930.54
100975.53
101012.19
101049.06
101080.54
101105.9
101126.38
101143.33
101157.97
101171.31
101184.16
101196.87
101209.57
101221.93
101233.53
101243.79
101252.92
101262.15
101272.14
101281.87
101289.6
101294.26
101295.57
101293.82
101289.88
101284.31
101277.07
101267.59
101255.96
101242.96
101227.91
101212.92
101198.5
101184.83
101176.99
101167.9
101171.88
101145.43
100808
101192.74
100932.76
101113.14
100986.48
101071.22
101010.43
101046.27
101017.05
101028.85
101012.37
101012.8
101002.44
101000.78
100993.91
100988.55
100979.7
100967.05
100939.63
100941.69
100921.07
100895.69
100873.91
100846.38
100835.94
100813.58
100835.83
100829.4
100900.46
100944.87
100986.93
101027.04
101061.93
101090.6
101113.36
101131.75
101147.13
101160.64
101173.17
101185.51
101197.89
101210.38
101222.59
101234.06
101244.19
101253.22
101262.37
101272.31
101281.99
101289.7
101294.33
101295.62
101293.85
101289.9
101284.32
101277.09
101267.71
101256.29
101242.49
101227.9
101212.97
101198.5
101184.81
101176.97
101167.87
101171.88
101145.18
100807.76
101192.95
100932.65
101113.09
100986.39
101070.93
101010.19
101045.76
101016.56
101028.16
101011.63
101011.84
101001.26
100999.39
100992.37
100986.67
100976.97
100966.38
100950.59
100918.68
100920.84
100896.22
100874.11
100845.57
100833.56
100808.42
100827.19
100813.01
100885.78
100909.86
100956.63
101002.54
101041.22
101073.54
101099.33
101119.67
101136.24
101150.26
101162.81
101174.69
101186.6
101198.71
101211.03
101223.11
101234.48
101244.51
101253.46
101262.54
101272.44
101282.1
101289.78
101294.39
101295.66
101293.88
101289.91
101284.34
101277.2
101267.99
101255.92
101242.48
101227.95
101212.99
101198.49
101184.78
101176.96
101167.83
101171.87
101144.88
100807.63
101193.2
100932.54
101113.1
100986.29
101070.65
101009.97
101045.25
101016.11
101027.45
101010.9
101010.85
101000.05
100997.95
100990.81
100985
100974.94
100963.22
100949.52
100930.59
100896.42
100895.95
100874.8
100845.96
100832.66
100804.98
100821.5
100801.12
100872.44
100888.43
100921.06
100972.4
101018.16
101054.27
101083.79
101106.75
101124.96
101139.95
101152.83
101164.57
101175.9
101187.47
101199.36
101211.54
101223.53
101234.82
101244.77
101253.64
101262.68
101272.55
101282.18
101289.84
101294.43
101295.69
101293.89
101289.93
101284.46
101277.49
101267.68
101255.91
101242.53
101227.98
101212.99
101198.48
101184.77
101176.94
101167.78
101171.83
101144.56
100807.64
101193.47
100932.43
101113.15
100986.17
101070.42
101009.75
101044.75
101015.67
101026.73
101010.17
101009.83
100998.82
100996.46
100989.19
100983.26
100973.13
100961.04
100945.96
100929.11
100908.43
100870.28
100874.63
100847.08
100833.39
100803.57
100817.58
100792.49
100862.38
100869.73
100899.64
100935.02
100989.36
101032.96
101065.98
101092.65
101112.99
101129.36
101143
101154.93
101165.99
101176.88
101188.16
101199.89
101211.96
101223.87
101235.09
101244.98
101253.79
101262.79
101272.63
101282.25
101289.89
101294.47
101295.71
101293.91
101290.05
101284.75
101277.18
101267.67
101255.96
101242.56
101228
101213.01
101198.49
101184.75
101176.94
101167.71
101171.77
101144.25
100807.83
101193.72
100932.35
101113.23
100986.03
101070.22
101009.53
101044.26
101015.24
101026
101009.46
101008.79
100997.57
100994.91
100987.51
100981.44
100971.22
100959.06
100943.61
100925.17
100906.65
100881.48
100847.91
100847.29
100835.28
100804.61
100815.9
100786.11
100854.83
100855.33
100881.27
100910.27
100951.66
101006.3
101046.56
101076.28
101100.18
101118.19
101132.99
101145.51
101156.63
101167.14
101177.66
101188.72
101200.31
101212.29
101224.14
101235.31
101245.15
101253.91
101262.88
101272.7
101282.3
101289.93
101294.49
101295.73
101294.03
101290.35
101284.43
101277.18
101267.71
101255.99
101242.59
101228.04
101213.04
101198.51
101184.76
101176.93
101167.64
101171.68
101143.98
100808.26
101193.92
100932.35
101113.34
100985.89
101070.07
101009.3
101043.82
101014.83
101025.28
101008.75
101007.73
100996.29
100993.29
100985.74
100979.51
100969.19
100956.91
100941.4
100922.58
100902.37
100879.55
100857.31
100819.42
100836.3
100807.79
100817.44
100782.44
100848.92
100844.16
100867.22
100889.73
100925.35
100968.71
101022.83
101058.66
101085.18
101106.49
101122.49
101135.98
101147.55
101158.01
101168.07
101178.29
101189.16
101200.64
101212.56
101224.36
101235.48
101245.28
101254.01
101262.95
101272.75
101282.34
101289.95
101294.51
101295.85
101294.33
101290.03
101284.43
101277.22
101267.75
101256.03
101242.64
101228.1
101213.09
101198.56
101184.79
101176.94
101167.56
101171.59
101143.77
100808.93
101194.03
100932.44
101113.44
100985.75
101069.95
101009.07
101043.4
101014.42
101024.58
101008.06
101006.68
100995
100991.6
100983.9
100977.48
100967.05
100954.63
100938.98
100920.08
100899.47
100874.94
100855.5
100826
100807.4
100810.5
100822.56
100783.24
100845.08
100835.2
100856.29
100873.41
100904.16
100940.76
100985.44
101038.65
101069.15
101092.81
101111.73
101126.05
101138.42
101149.21
101159.12
101168.81
101178.79
101189.52
101200.91
101212.77
101224.53
101235.62
101245.38
101254.09
101263
101272.79
101282.36
101289.97
101294.64
101296.15
101294.02
101290.03
101284.48
101277.26
101267.79
101256.09
101242.72
101228.19
101213.18
101198.65
101184.84
101176.94
101167.48
101171.51
101143.61
100809.87
101194.04
100932.68
101113.51
100985.66
101069.85
101008.83
101043.03
101014.02
101023.91
101007.39
101005.64
100993.72
100989.88
100981.98
100975.34
100964.78
100952.19
100936.37
100917.3
100896.59
100871.61
100850.65
100824.42
100810.13
100780
100828.21
100790.38
100846.07
100828.1
100847.48
100860.34
100887.07
100918.7
100956.96
101000.93
101053.53
101078.09
101099.27
101116.07
101128.97
101140.41
101150.55
101160.02
101169.4
101179.19
101189.8
101201.12
101212.94
101224.67
101235.73
101245.47
101254.15
101263.05
101272.81
101282.39
101290.12
101294.96
101295.84
101294.02
101290.09
101284.53
101277.31
101267.86
101256.18
101242.82
101228.32
101213.31
101198.76
101184.9
101176.95
101167.42
101171.44
101143.49
100811.17
101193.91
100933.1
101113.51
100985.62
101069.74
101008.6
101042.69
101013.63
101023.28
101006.73
101004.64
100992.46
100988.14
100980.01
100973.1
100962.36
100949.59
100933.58
100914.28
100893.35
100868.26
100846.82
100819.36
100809.17
100777.56
100796.41
100800.81
100856.7
100823.35
100840.37
100849.67
100873.17
100900.35
100934.74
100973.26
101014.54
101067.3
101085.65
101104.7
101119.63
101131.35
101142.03
101151.64
101160.74
101169.88
101179.51
101190.03
101201.29
101213.08
101224.78
101235.82
101245.54
101254.2
101263.07
101272.84
101282.55
101290.48
101294.63
101295.85
101294.09
101290.14
101284.59
101277.38
101267.95
101256.29
101242.96
101228.48
101213.47
101198.89
101184.96
101176.95
101167.36
101171.39
101143.42
100813.12
101193.7
100933.73
101113.43
100985.67
101069.62
101008.39
101042.37
101013.25
101022.69
101006.1
101003.69
100991.24
100986.41
100978
100970.78
100959.83
100946.8
100930.56
100911
100889.79
100864.46
100842.9
100814.89
100804.27
100776.89
100787.83
100767.19
100875.61
100822.24
100835.39
100840.96
100861.78
100885.08
100915.71
100951.35
100989.45
101026.03
101079.77
101092.02
101109.22
101122.55
101133.29
101143.33
101152.51
101161.31
101170.26
101179.76
101190.21
101201.43
101213.19
101224.87
101235.9
101245.59
101254.22
101263.1
101273.01
101282.94
101290.11
101294.65
101295.93
101294.16
101290.21
101284.67
101277.48
101268.07
101256.43
101243.13
101228.67
101213.63
101199.01
101185.01
101176.94
101167.32
101171.37
101143.38
100816.15
101193.38
100934.6
101113.26
100985.84
101069.46
101008.22
101042.05
101012.88
101022.13
101005.5
101002.78
100990.09
100984.73
100976.01
100968.42
100957.2
100943.87
100927.31
100907.43