/*--------------------------------*- C++ -*----------------------------------*\
| =========                 |                                                 |
| \\      /  F ield         | OpenFOAM: The Open Source CFD Toolbox           |
|  \\    /   O peration     | Version:  2206                                  |
|   \\  /    A nd           | Website:  www.openfoam.com                      |
|    \\/     M anipulation  |                                                 |
\*---------------------------------------------------------------------------*/
FoamFile
{
    version     2.0;
    format      ascii;
    arch        "LSB;label=32;scalar=64";
    class       volScalarField;
    location    "0";
    object      rho;
}
// * * * * * * * * * * * * * * * * * * * * * * * * * * * * * * * * * * * * * //

dimensions      [1 -3 0 0 0 0 0];

internalField   nonuniform List<scalar> 
19794
(
1.2017063
1.2012824
1.2018295
1.2008395
1.2017255
1.2017014
1.2004555
1.2015261
1.2014782
1.2016125
1.2000744
1.201408
1.2011798
1.2014391
1.2015734
1.1997602
1.2013004
1.2009303
1.2012194
1.2013856
1.201537
1.1994494
1.2012553
1.2006828
1.201074
1.2011675
1.2013396
1.2015175
1.1991634
1.2011893
1.200472
1.2009609
1.2010058
1.201153
1.2013166
1.2014967
1.198912
1.2011171
1.2002596
1.200891
1.2008624
1.2010328
1.2011635
1.2012913
1.2014769
1.1987441
1.2010549
1.2000636
1.2008208
1.2007414
1.2009426
1.2010754
1.2011752
1.2012762
1.2014581
1.198601
1.2010419
1.1999186
1.20076
1.2006203
1.2008737
1.2010047
1.2011178
1.2011959
1.2012712
1.2014458
1.1984796
1.2010311
1.1998219
1.2007355
1.2005236
1.2008051
1.2009376
1.2010711
1.2011608
1.201218
1.2012705
1.2014393
1.198376
1.2010267
1.1997548
1.2007351
1.2004636
1.2007688
1.2008644
1.2010192
1.2011308
1.2011945
1.2012366
1.2012699
1.2014348
1.1982787
1.2010271
1.1997081
1.2007462
1.2004441
1.2007664
1.2008263
1.200958
1.2010889
1.2011772
1.2012178
1.2012501
1.2012668
1.2014281
1.1981813
1.2010246
1.1996717
1.2007592
1.2004484
1.2008
1.2008247
1.2009404
1.201033
1.2011419
1.2012096
1.2012319
1.2012574
1.201259
1.2014164
1.1980897
1.2010171
1.1996326
1.2007641
1.2004634
1.2008508
1.2008614
1.20096
1.2010266
1.2010891
1.2011776
1.2012292
1.2012384
1.2012581
1.2012454
1.201398
1.1980108
1.2010114
1.1995875
1.2007522
1.2004725
1.2009011
1.2009172
1.2010191
1.201057
1.2010913
1.2011264
1.2011978
1.2012383
1.2012383
1.2012513
1.2012254
1.201372
1.1979448
1.2010141
1.1995431
1.2007266
1.2004647
1.2009326
1.2009716
1.201095
1.2011258
1.2011291
1.2011341
1.2011471
1.2012058
1.2012386
1.201232
1.2012363
1.2011985
1.2013377
1.1978894
1.2010265
1.1995058
1.2006972
1.2004409
1.2009379
1.2010058
1.2011639
1.2012077
1.2012043
1.2011768
1.2011553
1.2011539
1.2012039
1.2012312
1.2012192
1.2012131
1.2011643
1.2012944
1.1978409
1.2010469
1.1994765
1.2006724
1.2004083
1.2009205
1.2010129
1.2012074
1.2012777
1.20129
1.2012554
1.2012012
1.2011584
1.2011502
1.2011934
1.2012163
1.2012001
1.2011813
1.2011226
1.2012407
1.1977953
1.2010718
1.1994536
1.2006552
1.200374
1.2008892
1.2009958
1.2012198
1.2013188
1.2013603
1.2013418
1.2012799
1.2012059
1.2011452
1.2011363
1.2011748
1.2011942
1.2011753
1.2011416
1.2010708
1.2011739
1.197749
1.2010976
1.1994344
1.2006455
1.2003408
1.2008523
1.2009621
1.2012054
1.2013266
1.2013989
1.2014092
1.2013641
1.2012816
1.2011943
1.2011199
1.2011127
1.2011488
1.2011658
1.201146
1.2010928
1.2010055
1.2010899
1.1977
1.2011215
1.1994159
1.200642
1.2003094
1.2008142
1.2009192
1.2011725
1.2013073
1.2014032
1.2014426
1.2014265
1.2013612
1.2012643
1.2011675
1.2010859
1.2010801
1.2011166
1.2011331
1.2011129
1.2010325
1.2009213
1.2009851
1.1976473
1.2011412
1.1993955
1.2006424
1.2002799
1.2007772
1.200871
1.2011286
1.2012694
1.2013801
1.201441
1.2014532
1.201417
1.2013374
1.2012305
1.2011259
1.2010446
1.2010402
1.2010807
1.2010983
1.2010758
1.200956
1.2008102
1.2008559
1.1975909
1.2011558
1.1993715
1.2006446
1.2002515
1.2007427
1.2008201
1.2010779
1.2012208
1.2013388
1.2014124
1.2014454
1.2014368
1.2013861
1.2012957
1.2011824
1.2010695
1.2009949
1.2009954
1.2010439
1.2010628
1.201031
1.2008535
1.2006583
1.2006966
1.1975314
1.2011649
1.1993434
1.2006472
1.2002234
1.2007114
1.2007688
1.2010235
1.2011661
1.2012876
1.2013661
1.2014112
1.201423
1.2013989
1.2013372
1.2012388
1.2011209
1.2010022
1.2009375
1.2009489
1.2010087
1.201027
1.2009721
1.2007113
1.200454
1.2005147
1.1974691
1.2011688
1.1993111
1.2006492
1.2001953
1.2006833
1.2007183
1.2009679
1.2011083
1.2012316
1.2013104
1.2013597
1.2013836
1.2013797
1.2013443
1.2012738
1.2011681
1.2010452
1.2009284
1.2008752
1.2009035
1.2009756
1.2009876
1.2008863
1.2005147
1.2001894
1.2003478
1.1974033
1.2011682
1.1992752
1.2006505
1.2001668
1.2006588
1.2006695
1.2009129
1.2010499
1.2011737
1.201251
1.2012994
1.2013272
1.2013356
1.2013209
1.2012768
1.2011977
1.2010847
1.2009549
1.2008483
1.2008113
1.2008611
1.2009436
1.2009391
1.2007507
1.2002432
1.1998812
1.2002274
1.1973392
1.201163
1.199236
1.2006511
1.2001378
1.2006377
1.2006235
1.2008601
1.2009926
1.2011165
1.2011909
1.2012362
1.2012621
1.2012747
1.2012731
1.2012508
1.2011987
1.2011099
1.2009901
1.2008566
1.2007642
1.200748
1.2008217
1.2009097
1.200874
1.2005409
1.1998967
1.1996052
1.2001597
1.1972751
1.2011533
1.1991942
1.200651
1.2001079
1.2006196
1.2005806
1.2008106
1.2009374
1.2010616
1.2011325
1.2011736
1.2011947
1.2012048
1.2012081
1.2012003
1.2011716
1.2011105
1.2010111
1.2008838
1.2007551
1.2006785
1.2006864
1.2007843
1.2008686
1.2007796
1.2002203
1.1995366
1.1994792
1.2001274
1.1972117
1.2011432
1.1991503
1.2006499
1.2000768
1.200604
1.200541
1.2007656
1.200885
1.2010099
1.2010775
1.2011138
1.2011289
1.2011326
1.2011334
1.2011315
1.2011191
1.2010833
1.2010119
1.2009029
1.200768
1.2006506
1.2005919
1.2006263
1.2007468
1.2008121
1.2006409
1.1998219
1.1992399
1.1995023
1.2001111
1.1971496
1.2011311
1.1991046
1.200648
1.2000444
1.2005904
1.2005043
1.2007254
1.2008356
1.2009615
1.2010267
1.2010583
1.2010667
1.2010625
1.2010558
1.2010517
1.2010465
1.2010288
1.2009846
1.2009029
1.2007861
1.2006494
1.2005431
1.200504
1.2005672
1.2007061
1.2007343
1.2004283
1.1993892
1.1991443
1.1995474
1.2000993
1.1970893
1.2011186
1.1990565
1.2006453
1.2000107
1.2005782
1.2004699
1.2006902
1.2007895
1.2009169
1.2009803
1.201008
1.2010097
1.2009969
1.2009802
1.2009679
1.2009612
1.2009522
1.2009279
1.2008746
1.2007839
1.2006587
1.2005263
1.2004308
1.2004136
1.2005087
1.200661
1.2006384
1.2000015
1.1992155
1.1991306
1.1995905
1.2000903
1.1970311
1.2011063
1.1990091
1.2006418
1.1999755
1.2005669
1.2004371
1.2006594
1.2007464
1.2008757
1.2009383
1.2009631
1.2009585
1.2009371
1.2009097
1.2008858
1.2008706
1.200861
1.2008466
1.2008147
1.2007529
1.2006554
1.2005245
1.2003952
1.2003114
1.2003197
1.2004534
1.2006223
1.2004243
1.1996498
1.199169
1.1991371
1.1996265
1.2000834
1.1969753
1.2010954
1.1989606
1.2006376
1.1999389
1.2005561
1.2004052
1.2006323
1.2007065
1.200838
1.2009001
1.2009234
1.2009131
1.2008835
1.2008454
1.2008086
1.2007807
1.200763
1.2007491
1.2007282
1.200689
1.2006198
1.2005145
1.2003796
1.2002531
1.2001828
1.2002252
1.2004227
1.200504
1.2002628
1.1994719
1.1991513
1.1991594
1.1996549
1.2000783
1.1969212
1.2010873
1.1989113
1.2006322
1.1999003
1.2005455
1.2003738
1.200608
1.2006692
1.2008028
1.2008652
1.2008884
1.2008734
1.2008363
1.2007878
1.2007381
1.2006955
1.2006647
1.2006434
1.2006241
1.2005972
1.2005517
1.2004755
1.2003614
1.2002214
1.2000973
1.2000456
1.2001595
1.2003555
1.2004426
1.2000829
1.1993545
1.1991643
1.1991844
1.1996768
1.2000746
1.196868
1.2010815
1.1988616
1.200628
1.1998599
1.2005349
1.2003422
1.2005859
1.2006338
1.2007698
1.200833
1.2008575
1.2008387
1.2007949
1.2007369
1.2006747
1.2006171
1.2005706
1.2005366
1.200511
1.2004867
1.2004552
1.200404
1.200319
1.2001941
1.2000472
1.1999268
1.199935
1.2000687
1.2003798
1.2003422
1.1998938
1.1993062
1.199185
1.1992078
1.1996938
1.2000718
1.1968176
1.2010724
1.198812
1.2006246
1.1998198
1.2005244
1.2003103
1.2005655
1.2005999
1.2007386
1.2008027
1.2008299
1.2008083
1.2007589
1.2006921
1.2006183
1.2005462
1.2004832
1.2004334
1.2003959
1.2003666
1.2003392
1.200304
1.2002458
1.2001489
1.2000106
1.1998553
1.1997814
1.1997916
1.2001088
1.2003502
1.2002369
1.199751
1.1992898
1.1992064
1.1992283
1.1997068
1.2000697
1.1967776
1.2010574
1.1987635
1.2006217
1.1997783
1.2005145
1.2002777
1.2005463
1.2005669
1.2007089
1.2007737
1.2008051
1.2007815
1.2007275
1.2006527
1.2005681
1.2004824
1.2004033
1.2003365
1.2002838
1.2002439
1.2002129
1.200184
1.2001442
1.2000755
1.1999629
1.1998084
1.1996875
1.1995951
1.1998022
1.2001098
1.2003172
1.2001413
1.1996497
1.1992893
1.1992262
1.1992453
1.1997169
1.2000682
1.1967629
1.2010663
1.1987154
1.2006162
1.199736
1.2005046
1.2002438
1.2005281
1.2005344
1.2006802
1.2007455
1.2007822
1.2007575
1.2007
1.200618
1.2005234
1.2004249
1.2003306
1.2002468
1.2001773
1.2001234
1.2000834
1.2000526
1.2000212
1.1999734
1.1998899
1.1997577
1.1996281
1.1994758
1.1995761
1.1997903
1.2001279
1.2002775
1.2000584
1.1995855
1.1992972
1.1992439
1.1992591
1.1997248
1.200067
1.1967148
1.2011335
1.1986606
1.2006074
1.1996939
1.2004959
1.2002095
1.2005108
1.2005023
1.2006526
1.2007177
1.2007605
1.2007356
1.2006756
1.2005873
1.2004834
1.200373
1.2002643
1.2001641
1.2000776
1.2000077
1.1999551
1.199917
1.1998861
1.1998486
1.1997877
1.199684
1.1995711
1.1994042
1.1994395
1.199547
1.1998122
1.2001499
1.2002316
1.1999882
1.1995479
1.1993083
1.1992593
1.1992703
1.199731
1.2000661
1.1966934
1.2011378
1.1986162
1.2006121
1.199651
1.200485
1.2001754
1.2004947
1.2004703
1.200626
1.2006898
1.2007397
1.2007152
1.2006537
1.2005598
1.2004474
1.2003258
1.2002035
1.2000878
1.1999844
1.199898
1.1998307
1.1997816
1.1997452
1.199709
1.1996607
1.1995798
1.1994938
1.1993415
1.1993567
1.1994037
1.1995604
1.1998521
1.2001671
1.2001861
1.1999314
1.1995277
1.1993198
1.1992723
1.1992792
1.1997359
1.2000655
1.1966808
1.2011479
1.1985787
1.2006482
1.1996027
1.2004716
1.2001405
1.2004793
1.2004385
1.2006005
1.2006612
1.2007191
1.2006956
1.2006337
1.2005349
1.2004147
1.2002824
1.2001472
1.2000167
1.1998971
1.199794
1.1997112
1.1996489
1.1996032
1.1995619
1.1995167
1.1994477
1.1993853
1.1992602
1.1992845
1.1993178
1.1994164
1.1995996
1.1998982
1.2001774
1.200145
1.1998875
1.1995182
1.1993304
1.1992831
1.1992864
1.1997397
1.200065
1.1966676
1.2011585
1.1985579
1.2006539
1.1995655
1.2004675
1.2001041
1.2004627
1.2004065
1.2005763
1.2006319
1.2006985
1.2006765
1.2006151
1.200512
1.2003847
1.2002421
1.2000946
1.1999498
1.1998145
1.1996951
1.1995964
1.19952
1.1994627
1.199414
1.1993636
1.1992955
1.1992462
1.1991453
1.1991957
1.1992408
1.199331
1.1994595
1.1996522
1.1999443
1.2001816
1.2001103
1.1998546
1.1995148
1.1993397
1.199292
1.1992921
1.1997428
1.2000646
1.1966549
1.2011678
1.1985434
1.2006592
1.1995414
1.2004873
1.2000644
1.2004441
1.2003744
1.200553
1.2006022
1.200678
1.2006575
1.2005976
1.2004907
1.200357
1.2002046
1.2000449
1.1998862
1.1997356
1.1996002
1.1994855
1.1993946
1.1993249
1.1992649
1.1992074
1.1991321
1.1990841
1.1989941
1.199073
1.1991459
1.199251
1.1993772
1.1995194
1.1997107
1.1999864
1.2001812
1.2000821
1.1998307
1.1995146
1.1993476
1.1992993
1.1992967
1.1997453
1.2000643
1.1966457
1.2011761
1.1985293
1.2006642
1.1995262
1.2004891
1.2000376
1.2004321
1.200341
1.2005291
1.2005721
1.2006577
1.2006384
1.2005807
1.2004706
1.2003311
1.2001693
1.1999978
1.1998253
1.1996596
1.1995082
1.1993775
1.1992719
1.1991895
1.1991181
1.1990526
1.1989641
1.1989086
1.198815
1.1989094
1.199014
1.1991526
1.1992958
1.1994421
1.1995877
1.1997692
1.2000224
1.2001781
1.2000601
1.1998137
1.199516
1.1993542
1.1993052
1.1993004
1.1997472
1.2000641
1.1966458
1.2011833
1.1985156
1.2006688
1.1995148
1.2004907
1.2000191
1.2004428
1.2003069
1.2005042
1.2005411
1.2006375
1.2006195
1.2005646
1.2004513
1.2003067
1.200136
1.1999529
1.1997666
1.1995856
1.1994183
1.1992714
1.199151
1.1990555
1.1989728
1.1988984
1.1987959
1.1987278
1.1986196
1.1987117
1.1988342
1.1990159
1.1991966
1.199361
1.1995164
1.1996574
1.1998237
1.2000518
1.2001738
1.2000432
1.1998016
1.199518
1.1993597
1.1993099
1.1993033
1.1997488
1.2000639
1.1966582
1.2011862
1.1985044
1.2006729
1.1995039
1.2004922
1.2000075
1.2004396
1.200289
1.2004839
1.2005085
1.2006156
1.2006005
1.2005496
1.2004329
1.2002836
1.2001042
1.1999099
1.1997099
1.1995134
1.1993298
1.1991662
1.1990307
1.1989218
1.1988285
1.1987455
1.1986283
1.1985482
1.198418
1.1984939
1.1986131
1.1988239
1.1990585
1.1992637
1.1994374
1.1995929
1.1997233
1.1998718
1.200075
1.2001693
1.2000304
1.1997931
1.1995202
1.1993641
1.1993137
1.1993056
1.1997501
1.2000638
1.1966272
1.2011778
1.1985024
1.2006766
1.1994935
1.2004934
1.1999988
1.2004378
1.2002733
1.2004855
1.2004765
1.2005906
1.2005788
1.2005352
1.200416
1.200262
1.200074
1.1998686
1.1996549
1.1994426
1.1992423
1.1990613
1.1989103
1.1987874
1.1986843
1.1985925
1.1984635
1.1983731
1.198217
1.1982698
1.1983686
1.1985828
1.1988568
1.1991273
1.1993449
1.1995176
1.1996656
1.1997821
1.1999126
1.2000932
1.2001653
1.2000207
1.1997871
1.1995223
1.1993677
1.1993168
1.1993075
1.1997511
1.2000637
1.1966078
1.2011257
1.1985152
1.200678
1.1994846
1.2004946
1.1999906
1.2004367
1.2002636
1.2004777
1.2004629
1.2005699
1.2005511
1.2005171
1.2003999
1.2002425
1.2000455
1.199829
1.1996016
1.1993733
1.1991557
1.1989564
1.1987893
1.1986516
1.1985392
1.1984367
1.1983006
1.1982018
1.198019
1.1980505
1.1981189
1.198315
1.1985961
1.198918
1.1992133
1.1994328
1.1995958
1.1997311
1.1998325
1.1999463
1.2001073
1.2001618
1.2000134
1.1997828
1.1995242
1.1993707
1.1993192
1.199309
1.1997519
1.2000637
1.1965868
1.2011146
1.1985062
1.2006729
1.1994812
1.2004954
1.1999828
1.2004356
1.2002564
1.2004729
1.2004477
1.2005733
1.2005271
1.2004895
1.2003783
1.2002242
1.2000197
1.1997916
1.1995501
1.1993054
1.1990701
1.1988513
1.1986674
1.1985138
1.1983902
1.1982769
1.1981402
1.1980268
1.1978239
1.1978415
1.1978781
1.1980441
1.1983033
1.1986385
1.1989987
1.1993082
1.1995209
1.1996679
1.1997875
1.1998745
1.1999737
1.2001182
1.2001589
1.2000079
1.1997797
1.1995259
1.199373
1.1993212
1.1993102
1.1997526
1.2000636
1.1965664
1.2011143
1.1984879
1.2006447
1.1994864
1.2004951
1.1999764
1.2004345
1.2002498
1.2004694
1.2004385
1.2005597
1.2005408
1.2004699
1.2003431
1.2001991
1.1999951
1.1997572
1.1995009
1.1992392
1.1989856
1.1987462
1.1985445
1.1983732
1.1982375
1.1981154
1.1979802
1.1978511
1.1976355
1.1976406
1.19765
1.1977887
1.1980101
1.1983222
1.1987022
1.1990905
1.1994052
1.1996043
1.1997317
1.1998347
1.1999087
1.1999958
1.2001268
1.2001566
1.2000038
1.1997774
1.1995273
1.1993749
1.1993227
1.1993112
1.1997531
1.2000635
1.1965491
1.2011129
1.1984652
1.2006328
1.1994753
1.2004912
1.1999738
1.2004336
1.2002437
1.2004662
1.2004318
1.2005528
1.2005168
1.200516
1.2003178
1.2001567
1.1999623
1.1997244
1.1994553
1.1991753
1.1989024
1.1986414
1.1984208
1.1982279
1.198081
1.1979496
1.1978161
1.1976733
1.1974545
1.1974402
1.1974263
1.1975523
1.1977387
1.1980065
1.1983635
1.1987793
1.1991864
1.1994984
1.1996798
1.1997862
1.1998733
1.1999364
1.2000135
1.2001335
1.2001548
1.2000006
1.1997757
1.1995285
1.1993764
1.199324
1.199312
1.1997536
1.2000633
1.1965347
1.2011112
1.1984434
1.2006281
1.1994542
1.2004699
1.1999767
1.2004329
1.2002388
1.2004632
1.2004256
1.2005485
1.2005078
1.2004798
1.2003906
1.2001282
1.1999089
1.1996825
1.1994114
1.1991152
1.1988215
1.1985372
1.1982966
1.1980794
1.1979221
1.1977782
1.1976468
1.1974941
1.1972757
1.1972304
1.1971998
1.1973245
1.1974922
1.1977193
1.1980273
1.1984205
1.1988631
1.1992805
1.199584
1.1997456
1.1998318
1.1999045
1.1999586
1.2000277
1.2001387
1.2001533
1.1999981
1.1997744
1.1995294
1.1993777
1.199325
1.1993126
1.1997539
1.200063
1.1965229
1.2011094
1.1984241
1.2006231
1.1994317
1.2004565
1.1999625
1.2004311
1.2002369
1.2004607
1.2004201
1.2005443
1.2005036
1.2004715
1.2003335
1.2002331
1.199872
1.199617
1.1993576
1.1990573
1.1987447
1.1984348
1.1981724
1.1979288
1.1977597
1.1976005
1.1974723
1.1973132
1.1970964
1.1970214
1.1969797
1.1970961
1.1972556
1.1974631
1.1977247
1.1980654
1.1984871
1.1989481
1.1993684
1.1996595
1.1998014
1.1998693
1.1999296
1.1999764
1.200039
1.2001429
1.2001522
1.1999962
1.1997735
1.1995302
1.1993786
1.1993258
1.1993131
1.1997539
1.2000626
1.1965134
1.201107
1.1984072
1.200618
1.1994106
1.2004483
1.199944
1.2004128
1.2002385
1.2004593
1.2004157
1.2005406
1.2004992
1.2004704
1.2003246
1.2001551
1.2000017
1.1995708
1.1992779
1.1989888
1.1986703
1.1983362
1.1980493
1.1977766
1.1975935
1.1974162
1.1972917
1.1971271
1.1969182
1.1968171
1.196764
1.1968624
1.1970153
1.1972197
1.1974584
1.1977478
1.1981151
1.1985582
1.1990299
1.1994473
1.199724
1.1998476
1.1998998
1.1999497
1.1999906
1.200048
1.2001462
1.2001513
1.1999948
1.1997728
1.1995309
1.1993794
1.1993265
1.1993135
1.1997536
1.2000619
1.1965059
1.2011037
1.1983925
1.2006125
1.1993916
1.2004402
1.199925
1.2004002
1.2002209
1.2004581
1.2004135
1.200538
1.2004957
1.200468
1.2003255
1.2001474
1.1999021
1.1997217
1.1992189
1.1988922
1.1985854
1.1982405
1.1979298
1.1976241
1.1974242
1.1972253
1.1971043
1.1969339
1.1967375
1.1966181
1.1965516
1.1966231
1.1967667
1.1969727
1.1972088
1.1974711
1.197783
1.1981717
1.1986295
1.1991053
1.1995159
1.199778
1.1998855
1.1999245
1.1999657
1.2000019
1.2000552
1.2001488
1.2001506
1.1999936
1.1997722
1.1995314
1.1993801
1.1993271
1.1993138
1.1997528
1.2000611
1.1964997
1.2010993
1.1983798
1.2006065
1.1993746
1.200432
1.1999068
1.2003908
1.2002049
1.2004409
1.2004135
1.200537
1.2004946
1.200467
1.2003237
1.200151
1.1998951
1.1996039
1.1993833
1.1988166
1.1984705
1.1981342
1.1978132
1.1974741
1.1972532
1.1970278
1.1969097
1.1967322
1.1965524
1.1964225
1.1963444
1.1963915
1.1965178
1.1967152
1.1969564
1.1972152
1.1974955
1.1978258
1.198231
1.1986976
1.1991726
1.1995741
1.1998224
1.1999162
1.1999444
1.1999785
1.2000109
1.2000609
1.2001509
1.2001501
1.1999927
1.1997718
1.1995318
1.1993806
1.1993276
1.1993138
1.1997515
1.2000604
1.1964945
1.2010939
1.1983688
1.2005997
1.1993593
1.2004236
1.1998904
1.2003814
1.200189
1.2004279
1.2003953
1.2005371
1.2004974
1.2004699
1.2003248
1.2001505
1.1999002
1.1995971
1.1992512
1.1989856
1.1983761
1.1979963
1.1976863
1.1973269
1.1970835
1.1968248
1.1967079
1.1965191
1.1963626
1.1962293
1.1961423
1.196171
1.1962768
1.1964531
1.1966899
1.1969579
1.1972335
1.1975275
1.1978725
1.1982897
1.1987604
1.199231
1.1996226
1.1998586
1.1999409
1.1999603
1.1999887
1.2000182
1.2000655
1.2001525
1.2001497
1.199992
1.1997714
1.1995321
1.199381
1.1993283
1.1993136
1.1997503
1.2000644
1.1964896
1.2010876
1.1983593
1.200592
1.1993454
1.2004146
1.1998754
1.2003719
1.2001736
1.2004165
1.2003809
1.2005177
1.2005021
1.2004779
1.2003311
1.2001537
1.1998997
1.1996031
1.1992428
1.1988437
1.1985426
1.1978756
1.1975265
1.1971701
1.1969162
1.1966192
1.1965
1.1962932
1.1961662
1.1960349
1.1959433
1.1959594
1.1960486
1.1962015
1.1964156
1.1966824
1.1969714
1.1972594
1.1975636
1.1979199
1.1983453
1.1988164
1.1992806
1.1996624
1.1998878
1.1999608
1.1999731
1.1999968
1.2000239
1.2000692
1.2001538
1.2001493
1.1999914
1.1997711
1.1995323
1.199382
1.1993294
1.1993132
1.1997557
1.2000627
1.1964845
1.2010805
1.1983509
1.2005833
1.1993327
1.2004049
1.1998615
1.2003623
1.2001594
1.2004051
1.2003663
1.200508
1.2004675
1.2004868
1.2003434
1.2001627
1.1999041
1.1996023
1.1992485
1.1988313
1.1983964
1.1980247
1.197381
1.1969798
1.1967393
1.1964132
1.1962889
1.1960536
1.195962
1.1958352
1.1957442
1.1957541
1.1958316
1.1959683
1.196156
1.1963966
1.196687
1.1969927
1.1972897
1.1976013
1.1979659
1.1983961
1.1988651
1.1993221
1.1996948
1.1999113
1.1999767
1.1999834
1.2000033
1.2000285
1.2000721
1.2001549
1.200149
1.1999909
1.1997707
1.199533
1.1993845
1.1993308
1.1993151
1.1997546
1.2000627
1.1964789
1.201073
1.1983434
1.2005738
1.199321
1.2003944
1.1998486
1.2003522
1.2001461
1.2003938
1.2003519
1.2004972
1.2004669
1.2004235
1.200355
1.2001772
1.1999141
1.1996071
1.1992469
1.1988356
1.1983777
1.1978768
1.1975085
1.1967984
1.1965289
1.1961966
1.1960769
1.1958023
1.1957492
1.1956277
1.1955414
1.1955515
1.1956235
1.195749
1.1959207
1.1961308
1.1963897
1.1966991
1.1970185
1.1973221
1.1976386
1.1980086
1.1984413
1.1989066
1.1993563
1.1997211
1.1999302
1.1999895
1.1999916
1.2000084
1.2000322
1.2000745
1.2001558
1.2001488
1.1999904
1.1997708
1.1995359
1.1993886
1.1993289
1.1993155
1.1997549
1.2000629
1.1964724
1.2010653
1.1983364
1.2005635
1.19931
1.200383
1.1998362
1.2003416
1.2001335
1.2003825
1.2003382
1.2004853
1.2004605
1.2004408
1.2002511
1.2001887
1.199929
1.1996173
1.1992514
1.198833
1.1983797
1.197849
1.1973646
1.1968856
1.1963241
1.1959454
1.1958543
1.1955415
1.1955289
1.1954065
1.1953301
1.1953469
1.1954208
1.195541
1.1957016
1.1958958
1.196119
1.1963906
1.1967156
1.1970463
1.1973546
1.1976738
1.1980472
1.1984805
1.1989415
1.1993843
1.1997423
1.1999453
1.1999997
1.1999981
1.2000126
1.2000351
1.2000764
1.2001564
1.2001485
1.1999903
1.1997734
1.1995419
1.1993829
1.19933
1.1993161
1.1997559
1.2000631
1.1964652
1.2010578
1.1983298
1.2005527
1.1992996
1.2003706
1.1998243
1.2003301
1.2001213
1.200371
1.2003252
1.2004736
1.2004504
1.2004424
1.2002934
1.2000445
1.1999391
1.1996316
1.1992611
1.1988367
1.1983758
1.1978466
1.197327
1.1967424
1.1963793
1.1956889
1.195598
1.1952639
1.1953027
1.19517
1.1951039
1.1951351
1.1952184
1.1953413
1.1954965
1.1956792
1.1958859
1.1961157
1.1963961
1.1967342
1.1970744
1.1973857
1.1977061
1.1980812
1.1985139
1.1989705
1.1994072
1.1997594
1.1999574
1.2000078
1.2000034
1.2000159
1.2000374
1.2000778
1.2001568
1.2001484
1.1999924
1.1997798
1.1995343
1.1993839
1.199331
1.1993172
1.1997574
1.2000634
1.1964573
1.2010509
1.1983232
1.2005416
1.1992894
1.2003575
1.1998126
1.2003178
1.2001092
1.2003589
1.2003122
1.2004617
1.2004406
1.2004342
1.2003011
1.2001165
1.1997575
1.1996396
1.1992744
1.1988459
1.1983786
1.1978408
1.197319
1.1966911
1.1962456
1.1956702
1.1953373
1.1949482
1.1950627
1.1949178
1.1948615
1.1949097
1.1950104
1.1951443
1.1953026
1.1954788
1.1956728
1.1958851
1.1961175
1.1964042
1.1967534
1.1971015
1.1974145
1.1977349
1.1981106
1.198542
1.1989943
1.1994257
1.199773
1.199967
1.2000143
1.2000076
1.2000185
1.2000393
1.2000789
1.2001573
1.2001502
1.1999981
1.1997716
1.1995348
1.1993851
1.1993323
1.1993188
1.1997595
1.2000637
1.1964492
1.2010447
1.1983165
1.2005306
1.1992793
1.2003437
1.1998009
1.2003045
1.200097
1.200346
1.2002991
1.2004494
1.2004311
1.2004264
1.2002918
1.2001283
1.1998594
1.1994267
1.1992802
1.1988583
1.1983874
1.1978427
1.1973112
1.1966734
1.1961853
1.1955259
1.1952981
1.1946101
1.1947878
1.1946415
1.1946016
1.1946681
1.1947909
1.1949435
1.1951136
1.195293
1.1954788
1.1956758
1.1958897
1.1961224
1.1964138
1.1967721
1.1971266
1.1974405
1.1977601
1.1981355
1.1985654
1.1990138
1.1994407
1.199784
1.1999748
1.2000195
1.2000109
1.2000206
1.2000407
1.2000799
1.2001591
1.2001549
1.1999908
1.1997711
1.1995357
1.1993862
1.1993341
1.1993213
1.1997623
1.200064
1.1964413
1.2010392
1.1983097
1.2005198
1.1992693
1.2003295
1.1997891
1.2002903
1.2000846
1.2003322
1.2002857
1.2004364
1.2004214
1.2004194
1.2002844
1.2001161
1.1998712
1.1995549
1.1990415
1.1988622
1.1983992
1.1978517
1.1973123
1.1966615
1.1961589
1.1954453
1.1951717
1.194454
1.1944955
1.1943188
1.1943166
1.1944069
1.1945548
1.1947332
1.1949225
1.1951142
1.1953025
1.1954894
1.1956843
1.195897
1.1961289
1.1964237
1.1967896
1.1971492
1.1974633
1.1977817
1.1981564
1.1985846
1.1990297
1.1994527
1.1997928
1.1999809
1.2000236
1.2000135
1.2000221
1.2000419
1.2000819
1.2001632
1.2001491
1.19999
1.199771
1.1995364
1.1993879
1.1993369
1.1993247
1.1997659
1.2000641
1.1964341
1.2010343
1.1983028
1.2005094
1.1992591
1.2003151
1.1997771
1.2002753
1.2000719
1.2003175
1.2002716
1.2004223
1.2004112
1.200412
1.2002789
1.2001086
1.1998548
1.1995639
1.1991894
1.1986025
1.1984017
1.1978641
1.1973224
1.1966615
1.1961431
1.1954006
1.1950911
1.1942882
1.1943594
1.1939585
1.193982
1.1941201
1.1942989
1.1945077
1.1947239
1.1949345
1.1951351
1.1953234
1.1955056
1.1956954
1.1959056
1.196136
1.1964333
1.1968055
1.1971691
1.1974831
1.1978
1.1981738
1.1986004
1.1990426
1.1994624
1.1997999
1.1999859
1.2000269
1.2000156
1.2000235
1.2000441
1.2000859
1.2001591
1.2001485
1.1999895
1.1997701
1.1995373
1.1993904
1.1993409
1.1993291
1.19977
1.2000641
1.1964282
1.2010296
1.1982961
1.2004995
1.1992488
1.2003009
1.1997649
1.2002598
1.2000588
1.2003018
1.2002568
1.2004071
1.2004002
1.2004042
1.2002733
1.2001036
1.1998466
1.1995429
1.1991937
1.1987613
1.1981252
1.1978662
1.1973369
1.1966741
1.1961425
1.1953729
1.1950409
1.1941695
1.1942322
1.1937297
1.1936054
1.1937788
1.1940192
1.1942627
1.1945125
1.1947492
1.194968
1.195168
1.19535
1.1955242
1.1957071
1.1959142
1.1961431
1.1964424
1.1968197
1.1971864
1.1974999
1.1978153
1.1981882
1.1986133
1.199053
1.1994703
1.1998055
1.1999898
1.2000294
1.2000173
1.2000258
1.2000481
1.2000829
1.2001596
1.2001484
1.1999882
1.1997687
1.1995388
1.199394
1.1993462
1.1993344
1.1997743
1.2000639
1.196424
1.2010249
1.1982897
1.2004901
1.1992384
1.2002869
1.1997525
1.200244
1.2000452
1.2002852
1.2002413
1.2003906
1.2003883
1.2003956
1.2002675
1.2000985
1.1998414
1.1995336
1.1991682
1.1987607
1.1982847
1.197575
1.1973402
1.196694
1.1961594
1.1953668
1.1950082
1.1940853
1.1941365
1.1935353
1.1933661
1.1933768
1.1936802
1.193994
1.1942823
1.1945545
1.1947967
1.1950139
1.1952065
1.1953786
1.1955431
1.1957185
1.1959224
1.1961499
1.1964507
1.1968319
1.1972011
1.197514
1.197828
1.1981999
1.1986238
1.1990614
1.1994765
1.19981
1.1999928
1.2000316
1.2000199
1.2000301
1.2000455
1.2000844
1.200161
1.2001477
1.1999861
1.1997669
1.1995411
1.1993991
1.1993526
1.1993402
1.1997782
1.2000635
1.196422
1.2010196
1.198284
1.200481
1.1992281
1.2002734
1.1997399
1.200228
1.2000313
1.2002679
1.200225
1.2003728
1.2003752
1.2003864
1.2002615
1.2000931
1.1998358
1.1995274
1.1991574
1.1987308
1.1982804
1.1977244
1.1970366
1.196702
1.1961886
1.1953877
1.1949993
1.1940241
1.1940656
1.1933849
1.1931757
1.1930924
1.1932628
1.1936707
1.194032
1.1943425
1.1946204
1.1948568
1.1950653
1.1952464
1.1954066
1.195561
1.1957289
1.1959298
1.1961561
1.196458
1.1968425
1.1972134
1.1975258
1.1978384
1.1982095
1.1986322
1.1990682
1.1994815
1.1998135
1.1999953
1.2000345
1.2000245
1.2000275
1.2000473
1.2000872
1.2001628
1.2001466
1.1999833
1.1997648
1.1995446
1.1994055
1.1993599
1.1993458
1.1997814
1.200063
1.1964224
1.2010132
1.1982794
1.2004718
1.199218
1.2002602
1.1997273
1.2002123
1.2000172
1.2002503
1.200208
1.2003539
1.2003607
1.2003763
1.2002553
1.2000877
1.1998302
1.1995204
1.1991493
1.1987176
1.1982466
1.1977181
1.1971641
1.1963851
1.1962064
1.1954325
1.1950264
1.1939923
1.1940104
1.1932689
1.1930289
1.192879
1.192953
1.1932484
1.1937352
1.1941161
1.1944294
1.1946993
1.1949218
1.1951179
1.1952852
1.1954327
1.1955772
1.1957381
1.1959364
1.1961617
1.1964644
1.1968514
1.1972238
1.1975355
1.197847
1.1982173
1.1986391
1.1990736
1.1994854
1.1998164
1.1999986
1.2000393
1.2000222
1.2000296
1.2000507
1.2000911
1.2001652
1.200145
1.1999797
1.1997628
1.1995495
1.199413
1.1993672
1.1993507
1.1997838
1.2000625
1.1964256
1.2010053
1.1982761
1.2004622
1.1992083
1.2002474
1.1997148
1.2001969
1.2000029
1.2002326
1.2001905
1.2003339
1.2003451
1.2003654
1.2002487
1.2000822
1.1998248
1.1995134
1.1991401
1.1987067
1.1982301
1.1976805
1.1971589
1.1964784
1.1958778
1.1954704
1.1950943
1.1940112
1.1939767
1.193176
1.1929157
1.1927061
1.1927335
1.1929136
1.1933157
1.1938572
1.1942295
1.1945305
1.1947838
1.1949885
1.1951685
1.195321
1.1954562
1.1955917
1.1957462
1.195942
1.1961665
1.1964699
1.1968588
1.1972323
1.1975435
1.197854
1.1982236
1.1986446
1.1990778
1.1994887
1.1998201
1.2000036
1.2000374
1.2000249
1.2000334
1.2000556
1.2000969
1.2001688
1.200143
1.1999757
1.1997615
1.1995557
1.199421
1.1993738
1.1993547
1.1997856
1.2000621
1.1964317
1.2009955
1.1982745
1.2004517
1.1991992
1.2002346
1.1997026
1.2001818
1.1999888
1.2002149
1.2001728
1.2003132
1.2003282
1.2003536
1.2002416
1.2000767
1.1998195
1.1995065
1.1991307
1.1986943
1.1982155
1.1976594
1.1971187
1.1964757
1.1959245
1.1951239
1.1951671
1.1941035
1.193998
1.1931026
1.1928248
1.1925686
1.1925506
1.1926852
1.1929709
1.1934442
1.1940194
1.1943562
1.1946378
1.1948675
1.1950521
1.1952153
1.1953529
1.1954765
1.1956043
1.195753
1.1959468
1.1961707
1.1964745
1.196865
1.1972393
1.19755
1.1978597
1.1982287
1.1986488
1.1990813
1.1994927
1.1998256
1.2000022
1.2000408
1.2000297
1.2000388
1.2000628
1.2001051
1.2001737
1.2001409
1.199972
1.1997614
1.1995627
1.1994285
1.1993794
1.1993576
1.1997867
1.2000619
1.1964416
1.2009836
1.198275
1.20044
1.1991909
1.2002215
1.1996907
1.2001671
1.1999748
1.2001977
1.200155
1.2002923
1.2003102
1.2003409
1.2002342
1.2000711
1.1998143
1.1994998
1.1991214
1.1986815
1.1981989
1.1976401
1.1970922
1.1964331
1.1959288
1.1951082
1.1948066
1.1942332
1.1941315
1.1930547
1.1927514
1.1924569
1.1924034
1.1924867
1.1927446
1.1931094
1.1936117
1.1942036
1.1944895
1.1947447
1.1949467
1.1951104
1.195257
1.1953808
1.1954938
1.1956149
1.1957589
1.1959509
1.1961742
1.1964784
1.1968701
1.1972451
1.1975553
1.1978642
1.1982326
1.1986524
1.1990858
1.1994989
1.1998243
1.2000064
1.2000467
1.2000367
1.2000468
1.200073
1.2001166
1.2001801
1.2001389
1.1999691
1.1997628
1.1995696
1.1994349
1.1993836
1.1993597
1.1997875
1.2000617
1.1964586
1.2009698
1.1982777
1.2004266
1.1991835
1.2002077
1.1996793
1.2001526
1.1999612
1.2001809
1.2001375
1.2002713
1.2002914
1.2003275
1.2002262
1.2000654
1.1998094
1.1994932
1.1991121
1.1986683
1.1981812
1.197618
1.1970671
1.1963998
1.1958884
1.1951155
1.1947166
1.1938542
1.1943612
1.1930481
1.192701
1.1923659
1.1922833
1.1923234
1.1925398
1.1928975
1.1933091
1.1937995
1.1944008
1.1946219
1.1948456
1.1950195
1.1951625
1.1952933
1.1954046
1.1955082
1.1956239
1.1957637
1.1959542
1.1961772
1.1964816
1.1968743
1.1972497
1.1975595
1.1978678
1.1982359
1.198657
1.1990925
1.1994975
1.1998293
1.2000135
1.2000554
1.2000469
1.2000583
1.2000872
1.2001314
1.2001879
1.2001376
1.1999678
1.1997653
1.1995758
1.1994399
1.1993866
1.1993611
1.1997881
1.2000617
1.1964872
1.2009538
1.1982826
1.2004111
1.1991773
1.2001928
1.1996684
1.2001381
1.1999481
1.2001647
1.2001205