/*--------------------------------*- C++ -*----------------------------------*\
| =========                 |                                                 |
| \\      /  F ield         | OpenFOAM: The Open Source CFD Toolbox           |
|  \\    /   O peration     | Version:  2206                                  |
|   \\  /    A nd           | Website:  www.openfoam.com                      |
|    \\/     M anipulation  |                                                 |
\*---------------------------------------------------------------------------*/
FoamFile
{
    version     2.0;
    format      ascii;
    arch        "LSB;label=32;scalar=64";
    class       volScalarField;
    location    "0";
    object      yPlus;
}
// * * * * * * * * * * * * * * * * * * * * * * * * * * * * * * * * * * * * * //

dimensions      [0 0 0 0 0 0 0];

internalField   uniform 0;

boundaryField
{
    Side
    {
        type            empty;
    }
    Inlet
    {
        type            calculated;
        value           uniform 0;
    }
    Outlet
    {
        type            calculated;
        value           uniform 0;
    }
    Flap
    {
        type            calculated;
        value           nonuniform List<scalar> 
107
(
9.8003066
9.5116497
9.4587911
9.571916
9.6183604
9.751952
9.8926741
10.017774
10.152026
10.29348
10.433403
10.562817
10.687254
10.799181
10.900641
10.988781
11.066551
11.133738
11.191118
11.240183
11.281997
11.317737
11.347614
11.372746
11.400387
11.417282
11.384966
11.081591
10.181652
15.814907
15.813934
15.810849
15.805418
15.793864
15.776934
15.752622
15.717578
15.671875
15.620037
15.565248
15.509999
15.446345
15.373253
15.293575
15.211975
15.141254
15.065894
14.995312
14.926896
14.834129
14.745478
14.658768
14.542029
14.425005
14.453861
14.545381
14.373821
12.539988
20.277104
20.045792
21.127211
22.74674
23.008102
24.605626
24.836555
25.204925
25.218927
25.028552
24.714153
24.325278
23.805567
23.300414
22.673308
22.148336
21.555112
21.063778
20.583448
20.186969
19.767263
19.416112
19.102752
18.785209
18.603197
18.38297
18.244716
18.116194
17.962769
17.841408
17.731414
17.605104
17.475721
17.348372
17.237088
17.131469
17.016355
16.878736
16.730852
16.594881
16.458692
16.314737
16.179556
16.062065
15.952416
15.871898
15.81041
15.786433
15.805125
)
;
    }
    Airfoil
    {
        type            calculated;
        value           nonuniform List<scalar> 
176
(
22.687516
22.574423
22.45159
22.244717
22.045838
21.891152
21.616862
21.421582
21.186808
20.934302
20.712117
20.459018
20.226561
20.02188
19.771569
19.592624
19.41571
19.219362
19.064203
18.913871
18.764754
18.615027
18.462268
18.308968
18.154719
17.997858
17.841108
17.681962
17.502923
17.348482
17.204055
17.044746
16.910826
16.757189
16.609564
16.46222
16.358597
16.285805
16.210728
16.063352
15.842264
15.721441
15.672547
15.630142
15.616982
15.635567
15.674171
15.771429
15.769751
12.056506
11.982339
11.928428
11.871464
11.804102
11.735629
11.673021
11.617054
11.562206
11.507947
11.458376
11.416896
11.37576
11.329411
11.285631
11.247033
11.201711
11.149759
11.095155
11.040979
10.988419
10.936258
10.886678
10.842634
10.806513
10.778478
10.758681
10.747103
10.744423
10.751537
10.768776
10.797888
10.841218
10.899563
10.977429
11.076965
11.205035
11.367936
11.585362
11.416696
11.276505
11.14802
11.029951
10.923941
10.828356
10.743382
10.667024
10.599243
10.539398
10.486086
10.439494
10.398071
10.36211
10.331165
10.304883
10.283523
10.266142
10.253171
10.244727
10.24077
10.241345
10.246193
10.254606
10.266227
10.28055
10.300289
10.329904
10.371163
10.425441
10.494603
10.571995
10.657878
10.753461
10.837841
10.951098
11.077545
11.160716
11.057516
11.549629
11.655016
11.727249
11.774362
11.808076
11.834088
11.865365
11.920788
12.015675
12.107137
12.187371
12.251369
12.304583
12.349792
12.38854
12.421746
12.449485
12.473973
12.49653
12.514527
12.526743
12.533744
12.537265
12.539066
12.542517
12.543959
12.545104
12.546406
12.544581
12.534916
12.515297
12.479528
12.432662
12.372336
12.303988
12.234787
12.157388
12.087706
12.041826
12.009328
11.971943
11.978503
11.965021
11.960916
11.959149
11.951674
11.917707
11.853518
11.760946
)
;
    }
}


// ************************************************************************* //
