/*--------------------------------*- C++ -*----------------------------------*\
| =========                 |                                                 |
| \\      /  F ield         | OpenFOAM: The Open Source CFD Toolbox           |
|  \\    /   O peration     | Version:  2206                                  |
|   \\  /    A nd           | Website:  www.openfoam.com                      |
|    \\/     M anipulation  |                                                 |
\*---------------------------------------------------------------------------*/
FoamFile
{
    version     2.0;
    format      ascii;
    arch        "LSB;label=32;scalar=64";
    class       volScalarField;
    location    "0.01";
    object      alphat;
}
// * * * * * * * * * * * * * * * * * * * * * * * * * * * * * * * * * * * * * //

dimensions      [1 -1 -1 0 0 0 0];

internalField   nonuniform List<scalar> 
1396
(
2.7772295e-08
2.7772295e-08
2.7772295e-08
2.7772295e-08
2.7772295e-08
2.7772295e-08
2.7772295e-08
2.7772295e-08
2.7772295e-08
2.7772295e-08
2.7772294e-08
2.7772293e-08
2.7772291e-08
2.7772282e-08
2.7772295e-08
2.7772295e-08
2.7772295e-08
2.7772295e-08
2.7772295e-08
2.7772295e-08
2.7772295e-08
2.7772295e-08
2.7772295e-08
2.7772295e-08
2.7772294e-08
2.7772293e-08
2.7772291e-08
2.7772282e-08
2.7772295e-08
2.7772295e-08
2.7772295e-08
2.7772295e-08
2.7772295e-08
2.7772295e-08
2.7772295e-08
2.7772295e-08
2.7772295e-08
2.7772295e-08
2.7772294e-08
2.7772293e-08
2.7772291e-08
2.7772282e-08
2.7772295e-08
2.7772295e-08
2.7772295e-08
2.7772295e-08
2.7772295e-08
2.7772295e-08
2.7772295e-08
2.7772295e-08
2.7772295e-08
2.7772295e-08
2.7772294e-08
2.7772293e-08
2.7772291e-08
2.7772282e-08
2.7772295e-08
2.7772295e-08
2.7772295e-08
2.7772295e-08
2.7772295e-08
2.7772295e-08
2.7772295e-08
2.7772295e-08
2.7772295e-08
2.7772295e-08
2.7772294e-08
2.7772293e-08
2.7772291e-08
2.7772282e-08
2.7772295e-08
2.7772295e-08
2.7772295e-08
2.7772295e-08
2.7772295e-08
2.7772295e-08
2.7772295e-08
2.7772295e-08
2.7772295e-08
2.7772295e-08
2.7772294e-08
2.7772293e-08
2.7772291e-08
2.7772282e-08
2.7772295e-08
2.7772295e-08
2.7772295e-08
2.7772295e-08
2.7772295e-08
2.7772295e-08
2.7772295e-08
2.7772295e-08
2.7772295e-08
2.7772295e-08
2.7772294e-08
2.7772293e-08
2.7772291e-08
2.7772282e-08
1.1671214e-09
1.3370491e-08
2.2483206e-08
1.196634e-09
1.4969135e-08
2.3959249e-08
1.2639674e-09
1.5535607e-08
2.4391543e-08
1.2660803e-09
1.6920754e-08
2.6676274e-08
1.3290238e-09
1.8010621e-08
2.6438532e-08
1.3415601e-09
1.9335399e-08
2.810893e-08
1.4002875e-09
2.0248461e-08
2.8387262e-08
1.4256321e-09
2.1912332e-08
3.0230448e-08
1.4903501e-09
2.286346e-08
3.0722549e-08
1.5257175e-09
2.4683936e-08
3.2116513e-08
1.5996687e-09
2.5930462e-08
3.2487249e-08
1.6750224e-09
2.7914327e-08
3.3427598e-08
1.8501032e-09
2.9348825e-08
3.3385772e-08
2.1297142e-09
3.1370557e-08
3.3686131e-08
2.9749041e-08
2.9683895e-08
2.762865e-08
6.3176551e-08
2.0769674e-08
3.3099407e-08
3.6355009e-08
3.6258509e-08
3.2487924e-08
2.9709784e-08
2.808182e-08
2.7156259e-08
2.6476754e-08
2.5872406e-08
2.5296274e-08
2.5420578e-08
3.0743369e-08
3.4332732e-08
1.3970241e-08
2.7960015e-08
2.9469375e-08
3.1347696e-08
3.0189229e-08
2.8660817e-08
2.7415285e-08
2.6401167e-08
2.5579969e-08
2.4906767e-08
2.4320417e-08
2.4748094e-08
3.0140952e-08
3.249044e-08
1.9724146e-08
2.6737695e-08
2.7211312e-08
2.8444437e-08
2.831482e-08
2.7609097e-08
2.6612094e-08
2.5567927e-08
2.4667308e-08
2.3987458e-08
2.3397097e-08
2.402891e-08
2.9332243e-08
2.9911791e-08
2.4970409e-08
2.729171e-08
2.7323863e-08
2.7563843e-08
2.7400729e-08
2.6792647e-08
2.5818916e-08
2.471277e-08
2.3763663e-08
2.3141794e-08
2.25918e-08
2.3453777e-08
2.8122899e-08
2.7812888e-08
2.7772261e-08
2.7772255e-08
2.7772248e-08
2.7772238e-08
2.7772225e-08
2.7772208e-08
2.7772182e-08
2.7772144e-08
2.777208e-08
2.7771886e-08
2.7767442e-08
2.7719388e-08
2.7571717e-08
2.4187514e-08
2.7772261e-08
2.7772255e-08
2.7772248e-08
2.7772238e-08
2.7772226e-08
2.7772208e-08
2.7772182e-08
2.7772144e-08
2.777208e-08
2.7771885e-08
2.7767357e-08
2.7718847e-08
2.7570629e-08
2.4116358e-08
2.7772261e-08
2.7772256e-08
2.7772248e-08
2.7772239e-08
2.7772226e-08
2.7772208e-08
2.7772183e-08
2.7772144e-08
2.777208e-08
2.7771882e-08
2.7767291e-08
2.7718407e-08
2.7569293e-08
2.4044056e-08
2.7772261e-08
2.7772255e-08
2.7772248e-08
2.7772238e-08
2.7772226e-08
2.7772208e-08
2.7772183e-08
2.7772145e-08
2.7772081e-08
2.777188e-08
2.7767228e-08
2.7717972e-08
2.7567777e-08
2.396967e-08
2.7772248e-08
2.7772238e-08
2.7772226e-08
2.7772209e-08
2.7772183e-08
2.7772145e-08
2.7772081e-08
2.7771879e-08
2.7767167e-08
2.7717558e-08
2.7567124e-08
2.3899548e-08
2.7772238e-08
2.7772226e-08
2.7772208e-08
2.7772184e-08
2.7772146e-08
2.7772082e-08
2.7771879e-08
2.7767121e-08
2.7717245e-08
2.7567466e-08
2.3848181e-08
2.7772226e-08
2.7772208e-08
2.7772183e-08
2.7772146e-08
2.7772082e-08
2.7771879e-08
2.7767096e-08
2.7717117e-08
2.7568312e-08
2.3819486e-08
2.7772183e-08
2.7772147e-08
2.7772083e-08
2.777188e-08
2.7767099e-08
2.7717242e-08
2.7569075e-08
2.3813566e-08
2.7772145e-08
2.7772084e-08
2.7771881e-08
2.7767093e-08
2.7717354e-08
2.7567353e-08
2.3785728e-08
2.7772084e-08
2.777188e-08
2.776704e-08
2.7716847e-08
2.7562244e-08
2.369696e-08
2.7771877e-08
2.7766949e-08
2.7716358e-08
2.7565689e-08
2.3602983e-08
2.776705e-08
2.7717694e-08
2.7581977e-08
2.3751919e-08
2.7719792e-08
2.7569386e-08
2.4292031e-08
2.7689011e-08
2.3050748e-08
2.7772295e-08
2.7772295e-08
2.7772295e-08
2.7772295e-08
2.7772295e-08
2.7772295e-08
2.7772295e-08
2.7772295e-08
2.7772294e-08
2.7772293e-08
2.7772291e-08
2.7772283e-08
2.7772293e-08
2.7772291e-08
2.7772283e-08
2.7772283e-08
3.1261329e-08
3.2190734e-08
3.2994644e-08
3.3647251e-08
3.4082828e-08
3.4274909e-08
3.461199e-08
3.5550278e-08
3.6391125e-08
3.6924303e-08
3.7747301e-08
3.8760667e-08
3.9119831e-08
3.9825994e-08
2.5927034e-08
2.6551932e-08
2.7182948e-08
2.7812059e-08
2.8256478e-08
2.875637e-08
2.9370953e-08
3.0128895e-08
3.0955685e-08
3.1869119e-08
3.2930428e-08
3.4177335e-08
3.5677226e-08
3.7684953e-08
2.6025562e-08
2.671737e-08
2.7319012e-08
2.7889318e-08
2.847403e-08
2.9135591e-08
2.9899251e-08
3.0764054e-08
3.1725656e-08
3.2810981e-08
3.4057051e-08
3.5491041e-08
3.7176434e-08
3.9179459e-08
2.6598132e-08
2.7234134e-08
2.780348e-08
2.8340398e-08
2.8895759e-08
2.9491604e-08
3.0138765e-08
3.0838807e-08
3.158514e-08
3.2390914e-08
3.3245517e-08
3.4116408e-08
3.4973949e-08
3.5839671e-08
2.7108543e-08
2.7597281e-08
2.8030218e-08
2.8416097e-08
2.8794576e-08
2.916512e-08
2.9534655e-08
2.9910581e-08
3.0291233e-08
3.0676927e-08
3.1066887e-08
3.1456683e-08
3.1829705e-08
3.2136646e-08
2.7617716e-08
2.7870847e-08
2.8101497e-08
2.8293254e-08
2.8466236e-08
2.862483e-08
2.8772942e-08
2.8917949e-08
2.9054897e-08
2.9173064e-08
2.9268396e-08
2.9350303e-08
2.941884e-08
2.9446995e-08
2.8430306e-08
2.8373422e-08
2.8400215e-08
2.8405679e-08
2.841042e-08
2.8425588e-08
2.8443229e-08
2.8457974e-08
2.8467825e-08
2.8470556e-08
2.8466964e-08
2.8460049e-08
2.8450189e-08
2.8431278e-08
3.0316581e-08
2.9868672e-08
2.9676285e-08
2.941072e-08
2.918226e-08
2.9027772e-08
2.8913327e-08
2.8807598e-08
2.8708294e-08
2.861069e-08
2.85154e-08
2.8422366e-08
2.8331618e-08
2.8245473e-08
3.3684527e-08
3.3110916e-08
3.2796247e-08
3.2182525e-08
3.1547118e-08
3.1025426e-08
3.0624324e-08
3.0302622e-08
3.0035608e-08
2.9782798e-08
2.9528312e-08
2.9276422e-08
2.9040478e-08
2.8832366e-08
3.947509e-08
4.0269397e-08
4.0344562e-08
3.9152761e-08
3.7452492e-08
3.5988334e-08
3.4836039e-08
3.3962204e-08
3.3283032e-08
3.2654346e-08
3.2027799e-08
3.1411345e-08
3.0828669e-08
3.032271e-08
4.0773749e-08
4.2757841e-08
4.4395199e-08
4.4142776e-08
4.2731667e-08
4.0536166e-08
3.8348135e-08
3.6916531e-08
3.6021574e-08
3.5312457e-08
3.4566809e-08
3.3737157e-08
3.2910603e-08
3.2164076e-08
3.884966e-08
4.4489779e-08
4.8486456e-08
4.9990094e-08
4.9010801e-08
4.6183486e-08
4.311008e-08
4.1163129e-08
4.0037771e-08
3.9142532e-08
3.8154923e-08
3.7058863e-08
3.5889579e-08
3.4759073e-08
3.6894603e-08
3.6384644e-08
4.2565477e-08
4.45097e-08
4.4986361e-08
4.4177587e-08
4.2023947e-08
3.9799405e-08
3.8610871e-08
3.7763729e-08
3.7086896e-08
3.638675e-08
3.569579e-08
3.4998599e-08
4.1457036e-08
6.1326624e-08
5.3963707e-08
5.8890386e-08
5.9116222e-08
5.7599474e-08
5.229528e-08
4.9361718e-08
4.8413617e-08
4.8189905e-08
4.8132234e-08
4.7775005e-08
4.7138901e-08
4.6214671e-08
5.9741754e-07
2.9740084e-09
7.3815791e-08
2.3850067e-08
2.8294666e-08
2.7727021e-08
2.7757558e-08
2.7680929e-08
2.7317241e-08
2.6052143e-08
2.3400934e-08
2.0106324e-08
1.7698079e-08
1.4838185e-08
2.9775989e-07
7.9192137e-09
6.8862258e-08
2.4581323e-08
2.8361277e-08
2.7727297e-08
2.7758113e-08
2.7682013e-08
2.7354276e-08
2.6232706e-08
2.3778054e-08
2.0417395e-08
1.8926838e-08
1.7725896e-08
2.1104918e-07
1.1711359e-08
6.4232826e-08
2.5587446e-08
2.8392536e-08
2.7738239e-08
2.7751547e-08
2.7655039e-08
2.72774e-08
2.6152589e-08
2.3932752e-08
2.1038453e-08
2.1041238e-08
2.1446377e-08
1.8992004e-07
1.9919717e-08
6.0080683e-08
2.6912393e-08
2.8411817e-08
2.7752375e-08
2.7744041e-08
2.7626574e-08
2.7197525e-08
2.6057433e-08
2.400123e-08
2.1230057e-08
2.2164284e-08
2.3905297e-08
1.7256982e-07
3.1456606e-08
5.6116953e-08
2.8337339e-08
2.8488043e-08
2.7771164e-08
2.7737639e-08
2.7602516e-08
2.713777e-08
2.6008998e-08
2.414744e-08
2.1353722e-08
2.2620487e-08
2.6340463e-08
1.4855448e-07
4.4677394e-08
5.3494526e-08
2.9704708e-08
2.8689039e-08
2.7800552e-08
2.7733614e-08
2.7585964e-08
2.7105383e-08
2.6018814e-08
2.4404075e-08
2.1654513e-08
2.3039443e-08
2.8502304e-08
1.2073341e-07
5.565412e-08
5.5260677e-08
3.1040129e-08
2.9094487e-08
2.7861838e-08
2.7736864e-08
2.7582336e-08
2.7115038e-08
2.6115972e-08
2.478371e-08
2.2199738e-08
2.3626549e-08
3.0584982e-08
9.5911178e-08
6.4091616e-08
5.6750778e-08
3.263868e-08
2.9707446e-08
2.7977422e-08
2.7752473e-08
2.7597049e-08
2.7176454e-08
2.6323402e-08
2.5306705e-08
2.300275e-08
2.4419804e-08
3.2752683e-08
7.6662074e-08
6.7702532e-08
5.6402696e-08
3.4943177e-08
3.0456989e-08
2.8162867e-08
2.7792359e-08
2.7630708e-08
2.7293017e-08
2.6636417e-08
2.5955766e-08
2.409225e-08
2.5460044e-08
3.5038545e-08
6.451341e-08
6.4696267e-08
5.4971593e-08
3.6705972e-08
3.1265132e-08
2.8404696e-08
2.785865e-08
2.7687312e-08
2.7460331e-08
2.7044752e-08
2.6749381e-08
2.5425298e-08
2.6692694e-08
3.7282889e-08
5.5320706e-08
5.8913987e-08
5.2859974e-08
3.7534191e-08
3.2124971e-08
2.8706976e-08
2.7962064e-08
2.7764247e-08
2.7680416e-08
2.7566737e-08
2.7703078e-08
2.707309e-08
2.7975097e-08
3.9373391e-08
4.9333897e-08
5.2326261e-08
4.9831725e-08
3.7822499e-08
3.2537718e-08
2.9021084e-08
2.8097795e-08
2.7863783e-08
2.7945137e-08
2.8170696e-08
2.8760337e-08
2.8903683e-08
2.963949e-08
4.1162283e-08
4.4368724e-08
4.6101529e-08
4.6160301e-08
3.7653462e-08
3.2584474e-08
2.925303e-08
2.8281107e-08
2.8006909e-08
2.8243231e-08
2.8852573e-08
2.9889384e-08
3.0811439e-08
3.1342206e-08
4.275882e-08
4.200254e-08
4.1238299e-08
4.2387278e-08
3.6990109e-08
3.2455688e-08
2.9423847e-08
2.8362768e-08
2.8121464e-08
2.8545844e-08
2.9585662e-08
3.1029695e-08
3.268415e-08
3.2926073e-08
4.3552592e-08
2.7766838e-08
4.4484698e-08
2.4841689e-08
2.8870424e-08
2.7635761e-08
2.7787593e-08
2.7770128e-08
2.7781192e-08
2.7816757e-08
2.7903949e-08
2.8081665e-08
2.813673e-08
2.741593e-08
2.5636003e-08
2.9496324e-08
2.743684e-08
2.8054359e-08
2.7717628e-08
2.778112e-08
2.7768425e-08
2.7770353e-08
2.7769838e-08
2.7768418e-08
2.7763157e-08
2.7753315e-08
2.7747978e-08
2.7752064e-08
2.7696893e-08
2.7756503e-08
2.7800101e-08
2.7764724e-08
2.7773863e-08
2.777062e-08
2.7771234e-08
2.7771222e-08
2.777139e-08
2.7771642e-08
2.7771869e-08
2.7771215e-08
2.7767646e-08
2.7757499e-08
2.7738501e-08
2.7771636e-08
2.7771435e-08
2.777192e-08
2.7771602e-08
2.7771682e-08
2.7771664e-08
2.777168e-08
2.7771698e-08
2.777172e-08
2.7771743e-08
2.7771793e-08
2.7771868e-08
2.7771745e-08
2.7770655e-08
2.7771943e-08
2.7771924e-08
2.7771919e-08
2.777192e-08
2.7771913e-08
2.7771913e-08
2.7771915e-08
2.777192e-08
2.7771927e-08
2.7771937e-08
2.7771946e-08
2.7771954e-08
2.7771963e-08
2.7771967e-08
2.7772052e-08
2.7772046e-08
2.7772045e-08
2.7772044e-08
2.7772043e-08
2.7772041e-08
2.7772042e-08
2.7772043e-08
2.7772046e-08
2.7772049e-08
2.7772054e-08
2.777206e-08
2.7772066e-08
2.7772072e-08
2.7772121e-08
2.7772118e-08
2.7772117e-08
2.7772117e-08
2.7772117e-08
2.7772116e-08
2.7772116e-08
2.7772116e-08
2.7772117e-08
2.7772119e-08
2.7772121e-08
2.7772124e-08
2.7772127e-08
2.7772131e-08
2.7772164e-08
2.7772162e-08
2.7772162e-08
2.7772162e-08
2.7772162e-08
2.7772163e-08
2.7772162e-08
2.7772162e-08
2.7772163e-08
2.7772164e-08
2.7772165e-08
2.7772166e-08
2.7772168e-08
2.777217e-08
2.7772194e-08
2.7772192e-08
2.7772192e-08
2.7772192e-08
2.7772192e-08
2.7772192e-08
2.7772193e-08
2.7772193e-08
2.7772193e-08
2.7772194e-08
2.7772195e-08
2.7772196e-08
2.7772197e-08
2.7772198e-08
2.7772214e-08
2.7772213e-08
2.7772213e-08
2.7772213e-08
2.7772213e-08
2.7772214e-08
2.7772214e-08
2.7772214e-08
2.7772215e-08
2.7772215e-08
2.7772216e-08
2.7772216e-08
2.7772217e-08
2.7772218e-08
2.7772229e-08
2.7772228e-08
2.7772228e-08
2.7772228e-08
2.7772229e-08
2.7772229e-08
2.7772229e-08
2.7772229e-08
2.777223e-08
2.777223e-08
2.7772231e-08
2.7772232e-08
2.7772232e-08
2.7772233e-08
2.777224e-08
2.777224e-08
2.777224e-08
2.777224e-08
2.777224e-08
2.777224e-08
2.777224e-08
2.7772241e-08
2.7772241e-08
2.7772242e-08
2.7772242e-08
2.7772243e-08
2.7772243e-08
2.7772244e-08
2.7772248e-08
2.7772248e-08
2.7772248e-08
2.7772249e-08
2.7772249e-08
2.7772249e-08
2.7772249e-08
2.777225e-08
2.777225e-08
2.777225e-08
2.7772251e-08
2.7772251e-08
2.7772251e-08
2.7772252e-08
2.7772255e-08
2.7772255e-08
2.7772255e-08
2.7772255e-08
2.7772256e-08
2.7772256e-08
2.7772256e-08
2.7772256e-08
2.7772257e-08
2.7772257e-08
2.7772257e-08
2.7772258e-08
2.7772258e-08
2.7772258e-08
4.1605667e-08
2.7839109e-08
2.7829195e-08
2.7772018e-08
2.7771895e-08
2.777202e-08
2.7772095e-08
2.7772144e-08
2.7772177e-08
2.7772201e-08
2.7772218e-08
2.7772231e-08
2.7772241e-08
2.7772249e-08
4.1225047e-08
2.7831438e-08
2.7827997e-08
2.7772128e-08
2.7771913e-08
2.7772035e-08
2.7772106e-08
2.7772153e-08
2.7772184e-08
2.7772206e-08
2.7772222e-08
2.7772235e-08
2.7772244e-08
2.7772251e-08
3.9637894e-08
2.811177e-08
2.7800924e-08
2.7772174e-08
2.7771928e-08
2.7772045e-08
2.7772116e-08
2.777216e-08
2.777219e-08
2.7772211e-08
2.7772226e-08
2.7772238e-08
2.7772247e-08
2.7772254e-08
2.7772295e-08
2.7772295e-08
2.7772295e-08
2.7772295e-08
2.7772295e-08
2.7772295e-08
2.7772295e-08
2.7772295e-08
2.7772295e-08
2.7772295e-08
2.7772295e-08
2.7772295e-08
2.7772295e-08
2.7772295e-08
2.7772295e-08
2.7772295e-08
2.7772295e-08
2.7772295e-08
2.7772295e-08
2.7772295e-08
2.7772295e-08
2.7772295e-08
2.7772295e-08
2.7772295e-08
2.7772295e-08
2.7772295e-08
2.7772295e-08
2.7772295e-08
2.7772295e-08
2.7772295e-08
2.7772295e-08
2.7772295e-08
2.7772295e-08
2.7772295e-08
2.7772295e-08
2.7772295e-08
2.7772295e-08
2.7772295e-08
2.7772295e-08
2.7772295e-08
2.7772295e-08
2.7772295e-08
2.7772295e-08
2.7772295e-08
2.7772295e-08
2.7772295e-08
2.7772294e-08
2.7772295e-08
2.7772295e-08
2.7772295e-08
2.7772295e-08
2.7772295e-08
2.7772295e-08
2.7772295e-08
2.7772295e-08
2.7772295e-08
2.7772295e-08
2.7772294e-08
2.7772293e-08
2.7772295e-08
2.7772295e-08
2.7772295e-08
2.7772295e-08
2.7772295e-08
2.7772295e-08
2.7772295e-08
2.7772295e-08
2.7772295e-08
2.7772295e-08
2.7772294e-08
2.7772293e-08
2.7772291e-08
2.7772295e-08
2.7772295e-08
2.7772295e-08
2.7772295e-08
2.7772295e-08
2.7772295e-08
2.7772295e-08
2.7772295e-08
2.7772295e-08
2.7772295e-08
2.7772294e-08
2.7772293e-08
2.7772291e-08
2.7772282e-08
2.7772295e-08
2.7772295e-08
2.7772295e-08
2.7772295e-08
2.7772295e-08
2.7772295e-08
2.7772295e-08
2.7772295e-08
2.7772295e-08
2.7772295e-08
2.7772294e-08
2.7772293e-08
2.7772291e-08
2.7772282e-08
2.7772295e-08
2.7772295e-08
2.7772295e-08
2.7772295e-08
2.7772295e-08
2.7772295e-08
2.7772295e-08
2.7772295e-08
2.7772295e-08
2.7772295e-08
2.7772294e-08
2.7772293e-08
2.7772291e-08
2.7772282e-08
2.7772295e-08
2.7772295e-08
2.7772295e-08
2.7772295e-08
2.7772295e-08
2.7772295e-08
2.7772295e-08
2.7772295e-08
2.7772295e-08
2.7772295e-08
2.7772294e-08
2.7772293e-08
2.7772291e-08
2.7772282e-08
2.7772295e-08
2.7772295e-08
2.7772295e-08
2.7772295e-08
2.7772295e-08
2.7772295e-08
2.7772295e-08
2.7772295e-08
2.7772295e-08
2.7772295e-08
2.7772294e-08
2.7772293e-08
2.7772291e-08
2.7772282e-08
2.7772282e-08
2.7772291e-08
2.7772293e-08
2.7772294e-08
2.7772295e-08
2.7772295e-08
2.7772295e-08
2.7772295e-08
2.7772295e-08
2.7772295e-08
2.7772295e-08
2.7772295e-08
2.7772295e-08
2.7772295e-08
2.7772282e-08
2.7772291e-08
2.7772293e-08
2.7772294e-08
2.7772295e-08
2.7772295e-08
2.7772295e-08
2.7772295e-08
2.7772295e-08
2.7772295e-08
2.7772295e-08
2.7772295e-08
2.7772295e-08
2.7772295e-08
2.7772282e-08
2.7772291e-08
2.7772293e-08
2.7772294e-08
2.7772295e-08
2.7772295e-08
2.7772295e-08
2.7772295e-08
2.7772295e-08
2.7772295e-08
2.7772295e-08
2.7772295e-08
2.7772295e-08
2.7772295e-08
2.7772282e-08
2.7772291e-08
2.7772293e-08
2.7772294e-08
2.7772295e-08
2.7772295e-08
2.7772295e-08
2.7772295e-08
2.7772295e-08
2.7772295e-08
2.7772295e-08
2.7772295e-08
2.7772295e-08
2.7772295e-08
2.7772282e-08
2.7772291e-08
2.7772293e-08
2.7772294e-08
2.7772295e-08
2.7772295e-08
2.7772295e-08
2.7772295e-08
2.7772295e-08
2.7772295e-08
2.7772295e-08
2.7772295e-08
2.7772295e-08
2.7772295e-08
2.7772282e-08
2.7772291e-08
2.7772293e-08
2.7772294e-08
2.7772295e-08
2.7772295e-08
2.7772295e-08
2.7772295e-08
2.7772295e-08
2.7772295e-08
2.7772295e-08
2.7772295e-08
2.7772295e-08
2.7772295e-08
2.7772281e-08
2.7772291e-08
2.7772293e-08
2.7772294e-08
2.7772295e-08
2.7772295e-08
2.7772295e-08
2.7772295e-08
2.7772295e-08
2.7772295e-08
2.7772295e-08
2.7772295e-08
2.7772295e-08
2.7772295e-08
2.7772281e-08
2.7772291e-08
2.7772293e-08
2.7772294e-08
2.7772295e-08
2.7772295e-08
2.7772295e-08
2.7772295e-08
2.7772295e-08
2.7772295e-08
2.7772295e-08
2.7772295e-08
2.7772295e-08
2.7772281e-08
2.7772291e-08
2.7772293e-08
2.7772294e-08
2.7772295e-08
2.7772295e-08
2.7772295e-08
2.7772295e-08
2.7772295e-08
2.7772295e-08
2.7772295e-08
2.7772295e-08
2.7772281e-08
2.7772291e-08
2.7772293e-08
2.7772294e-08
2.7772295e-08
2.7772295e-08
2.7772295e-08
2.7772295e-08
2.7772295e-08
2.7772295e-08
2.7772295e-08
2.7772281e-08
2.7772291e-08
2.7772293e-08
2.7772294e-08
2.7772295e-08
2.7772295e-08
2.7772295e-08
2.7772295e-08
2.7772295e-08
2.7772295e-08
2.7772281e-08
2.7772291e-08
2.7772293e-08
2.7772294e-08
2.7772295e-08
2.7772295e-08
2.7772295e-08
2.7772295e-08
2.7772295e-08
2.7772281e-08
2.7772291e-08
2.7772293e-08
2.7772294e-08
2.7772295e-08
2.7772295e-08
2.7772295e-08
2.7772295e-08
2.7772281e-08
2.7772291e-08
2.7772293e-08
2.7772294e-08
2.7772295e-08
2.7772295e-08
2.7772295e-08
2.7772295e-08
2.7772295e-08
2.7772295e-08
2.7772294e-08
2.7772293e-08
2.7772291e-08
2.7772281e-08
2.7772294e-08
2.7772293e-08
2.7772291e-08
2.777228e-08
2.777228e-08
2.5850176e-08
2.4227372e-08
2.4255439e-08
2.4032459e-08
2.7517304e-08
2.7612877e-08
2.760316e-08
2.7597577e-08
2.7699168e-08
2.7711853e-08
2.7708003e-08
2.7705801e-08
2.7767101e-08
2.7767678e-08
2.7767257e-08
2.7767001e-08
2.7771862e-08
2.777188e-08
2.7771865e-08
2.7771854e-08
2.7772077e-08
2.7772087e-08
2.7772078e-08
2.7772077e-08
2.7772135e-08
2.7772144e-08
2.7772145e-08
2.7772141e-08
2.7772173e-08
2.7772179e-08
2.7772182e-08
2.7772182e-08
2.77722e-08
2.7772203e-08
2.7772206e-08
2.7772206e-08
2.7772219e-08
2.7772221e-08
2.7772223e-08
2.7772224e-08
2.7772233e-08
2.7772235e-08
2.7772236e-08
2.7772237e-08
2.7772244e-08
2.7772245e-08
2.7772246e-08
2.7772246e-08
2.7772252e-08
2.7772253e-08
2.7772254e-08
2.7772254e-08
2.7772259e-08
2.7772259e-08
2.777226e-08
2.777226e-08
2.7772261e-08
2.7772261e-08
2.7772261e-08
2.7772261e-08
2.7772261e-08
2.7772261e-08
2.7772261e-08
2.7772255e-08
2.7772255e-08
2.7772255e-08
2.7772254e-08
2.7772254e-08
2.7772255e-08
2.7772248e-08
2.7772247e-08
2.7772247e-08
2.7772247e-08
2.7772247e-08
2.7772247e-08
2.7772238e-08
2.7772238e-08
2.7772237e-08
2.7772237e-08
2.7772237e-08
2.7772225e-08
2.7772225e-08
2.7772224e-08
2.7772224e-08
2.7772224e-08
2.7772207e-08
2.7772207e-08
2.7772206e-08
2.7772206e-08
2.7772182e-08
2.7772181e-08
2.7772181e-08
2.7772182e-08
2.7772143e-08
2.7772143e-08
2.7772144e-08
2.7772082e-08
2.777208e-08
2.777208e-08
2.7771891e-08
2.7771891e-08
2.7767632e-08
2.7767725e-08
2.7720389e-08
)
;

boundaryField
{
    Side
    {
        type            empty;
    }
    Inlet
    {
        type            calculated;
        value           nonuniform List<scalar> 
28
(
2.7772295e-08
2.7772295e-08
2.7772295e-08
2.7772295e-08
2.7772295e-08
2.7772295e-08
2.7772295e-08
3.9592188e-07
3.9592188e-07
3.9592188e-07
3.9592188e-07
3.9592188e-07
3.9592188e-07
3.9592188e-07
3.9592188e-07
3.9592188e-07
3.9592188e-07
3.9592188e-07
3.9592188e-07
3.9592188e-07
3.9592188e-07
3.9592188e-07
3.9592188e-07
3.9592188e-07
3.9592188e-07
3.9592188e-07
3.9592188e-07
3.9592188e-07
)
;
    }
    Airfoil
    {
        type            compressible::alphatWallFunction;
        value           nonuniform List<scalar> 
60
(
2.8080397e-06
2.857442e-06
2.8979631e-06
2.9381654e-06
2.9773234e-06
3.0155942e-06
3.0531158e-06
3.089751e-06
3.1246185e-06
3.156055e-06
3.1838627e-06
3.2137699e-06
3.2590965e-06
3.320839e-06
1.4928362e-05
1.4914904e-05
1.4905305e-05
1.4898346e-05
1.4893126e-05
1.4890145e-05
1.4890473e-05
1.4895531e-05
1.4905276e-05
1.491329e-05
1.4910189e-05
1.4898956e-05
1.4995835e-05
1.4513594e-05
2.555655e-06
2.6444674e-06
2.6275207e-06
2.6273479e-06
2.620427e-06
2.6142266e-06
2.6262493e-06
2.6520197e-06
2.6743644e-06
2.6885313e-06
2.6972278e-06
2.7048007e-06
2.713868e-06
2.7238217e-06
3.4252592e-06
3.1588402e-06
2.960383e-06
2.844342e-06
2.7909308e-06
2.7692135e-06
2.7588939e-06
2.7513032e-06
2.7444942e-06
2.7362347e-06
2.7308404e-06
2.7277611e-06
2.7262711e-06
2.7207619e-06
1.4956541e-05
1.4905509e-05
1.4777884e-05
1.4662536e-05
)
;
    }
    Outlet
    {
        type            zeroGradient;
    }
    Flap
    {
        type            compressible::alphatWallFunction;
        value           nonuniform List<scalar> 
36
(
2.2890468e-06
2.2043432e-06
2.1257142e-06
2.049863e-06
1.9755123e-06
2.3627776e-06
2.4040656e-06
2.4583188e-06
2.5158857e-06
2.5778706e-06
2.6457828e-06
2.7139792e-06
2.7806926e-06
2.8499828e-06
2.9249623e-06
3.0079878e-06
3.0991566e-06
3.193547e-06
3.3013806e-06
3.5637206e-06
4.3610442e-06
5.2335932e-06
6.0395787e-06
6.3314403e-06
6.2552497e-06
5.9626778e-06
5.5475278e-06
5.0957557e-06
4.6887174e-06
4.301162e-06
3.9890456e-06
3.708404e-06
3.4902564e-06
1.6083372e-05
1.6364941e-05
1.6108925e-05
)
;
    }
    procBoundary2to1
    {
        type            processor;
        value           nonuniform List<scalar> 
73
(
2.7772295e-08
2.7772295e-08
2.7772295e-08
2.7772295e-08
2.7772295e-08
2.7772295e-08
2.7772295e-08
2.7772295e-08
2.7772295e-08
2.7772295e-08
2.7772294e-08
2.7772293e-08
2.7772291e-08
2.7772282e-08
2.7571511e-08
2.4307375e-08
2.7772295e-08
2.7772295e-08
2.7772295e-08
2.7772295e-08
2.7772295e-08
2.7772295e-08
2.7772295e-08
2.7772295e-08
2.7772295e-08
2.7772295e-08
2.7772295e-08
2.7772295e-08
2.7772295e-08
2.7772295e-08
2.7772295e-08
2.7772294e-08
2.7772294e-08
2.7772293e-08
2.7772293e-08
2.7772291e-08
2.7772291e-08
2.7772282e-08
2.7772282e-08
2.777226e-08
2.3881708e-08
2.7590878e-08
2.7702822e-08
2.7766653e-08
2.7771837e-08
2.7772071e-08
2.7772138e-08
2.7772178e-08
2.7772203e-08
2.7772222e-08
2.7772235e-08
2.7772246e-08
2.7772254e-08
2.777226e-08
2.777226e-08
2.7772254e-08
2.7772254e-08
2.7772247e-08
2.7772237e-08
2.7772237e-08
2.7772224e-08
2.7772206e-08
2.7772206e-08
2.7772181e-08
2.7772142e-08
2.7772142e-08
2.7772078e-08
2.7771891e-08
2.7771891e-08
2.7767836e-08
2.7720879e-08
2.7720879e-08
2.7571511e-08
)
;
    }
    procBoundary2to3
    {
        type            processor;
        value           nonuniform List<scalar> 
113
(
2.7772295e-08
2.7772295e-08
2.5795969e-08
2.9507219e-08
2.6444287e-08
2.6055332e-08
2.7058971e-08
2.7279416e-08
2.8196574e-08
2.8332067e-08
2.9013818e-08
2.9206433e-08
2.9578566e-08
2.962675e-08
2.9753205e-08
2.9699318e-08
2.9699318e-08
2.8091439e-08
2.7990776e-08
2.7908406e-08
2.7908406e-08
2.9507219e-08
2.8346225e-08
2.6984982e-08
2.7554262e-08
2.75079e-08
2.7386084e-08
2.6989926e-08
2.6178972e-08
2.5055022e-08
2.3874197e-08
2.2887914e-08
2.2363697e-08
2.1862143e-08
2.2841861e-08
2.2841861e-08
2.6991652e-08
2.7772261e-08
2.7772283e-08
2.7772256e-08
2.7772256e-08
2.7772248e-08
2.7772248e-08
2.7772239e-08
2.7772239e-08
2.7772226e-08
2.7772209e-08
2.7772209e-08
2.7772184e-08
2.7772184e-08
2.7772146e-08
2.7772146e-08
2.7772085e-08
2.7772085e-08
2.7771884e-08
2.7771884e-08
2.776765e-08
2.776765e-08
2.7725319e-08
2.7725319e-08
2.7772295e-08
2.7772295e-08
2.7772295e-08
2.7772295e-08
2.7772295e-08
2.7772295e-08
2.7772295e-08
2.7772295e-08
2.7772295e-08
2.7772294e-08
2.7772294e-08
2.7772293e-08
2.7772291e-08
2.7772291e-08
2.7772283e-08
4.2287998e-08
2.785125e-08
2.783668e-08
2.7772039e-08
2.7771872e-08
2.7772004e-08
2.7772083e-08
2.7772135e-08
2.777217e-08
2.7772195e-08
2.7772213e-08
2.7772227e-08
2.7772237e-08
2.7772246e-08
2.7772295e-08
2.7772295e-08
2.7772295e-08
2.7772295e-08
2.7772295e-08
2.7772295e-08
2.7772295e-08
2.7772295e-08
2.7772295e-08
2.7772295e-08
2.7772295e-08
2.7772295e-08
2.7772295e-08
2.7772295e-08
2.7772295e-08
2.7772295e-08
2.7772295e-08
2.7772295e-08
2.7772295e-08
2.7772294e-08
2.7772293e-08
2.777229e-08
2.777229e-08
2.7772279e-08
)
;
    }
}


// ************************************************************************* //
