/*--------------------------------*- C++ -*----------------------------------*\
| =========                 |                                                 |
| \\      /  F ield         | OpenFOAM: The Open Source CFD Toolbox           |
|  \\    /   O peration     | Version:  2206                                  |
|   \\  /    A nd           | Website:  www.openfoam.com                      |
|    \\/     M anipulation  |                                                 |
\*---------------------------------------------------------------------------*/
FoamFile
{
    version     2.0;
    format      ascii;
    arch        "LSB;label=32;scalar=64";
    class       volScalarField;
    location    "0.01";
    object      nut;
}
// * * * * * * * * * * * * * * * * * * * * * * * * * * * * * * * * * * * * * //

dimensions      [0 2 -1 0 0 0 0];

internalField   nonuniform List<scalar> 
1396
(
2.7772322e-08
2.7772322e-08
2.7772322e-08
2.7772322e-08
2.7772322e-08
2.7772322e-08
2.7772322e-08
2.7772322e-08
2.7772321e-08
2.7772321e-08
2.7772321e-08
2.777232e-08
2.7772318e-08
2.7772309e-08
2.7772322e-08
2.7772322e-08
2.7772322e-08
2.7772322e-08
2.7772322e-08
2.7772322e-08
2.7772322e-08
2.7772322e-08
2.7772321e-08
2.7772321e-08
2.7772321e-08
2.777232e-08
2.7772318e-08
2.7772309e-08
2.7772322e-08
2.7772322e-08
2.7772322e-08
2.7772322e-08
2.7772322e-08
2.7772322e-08
2.7772322e-08
2.7772322e-08
2.7772321e-08
2.7772321e-08
2.7772321e-08
2.777232e-08
2.7772318e-08
2.7772309e-08
2.7772322e-08
2.7772322e-08
2.7772322e-08
2.7772322e-08
2.7772322e-08
2.7772322e-08
2.7772322e-08
2.7772322e-08
2.7772321e-08
2.7772321e-08
2.7772321e-08
2.777232e-08
2.7772318e-08
2.7772309e-08
2.7772322e-08
2.7772322e-08
2.7772322e-08
2.7772322e-08
2.7772322e-08
2.7772322e-08
2.7772322e-08
2.7772322e-08
2.7772321e-08
2.7772321e-08
2.7772321e-08
2.777232e-08
2.7772318e-08
2.7772309e-08
2.7772322e-08
2.7772322e-08
2.7772322e-08
2.7772322e-08
2.7772322e-08
2.7772322e-08
2.7772322e-08
2.7772322e-08
2.7772321e-08
2.7772321e-08
2.7772321e-08
2.777232e-08
2.7772318e-08
2.7772309e-08
2.7772322e-08
2.7772322e-08
2.7772322e-08
2.7772322e-08
2.7772322e-08
2.7772322e-08
2.7772322e-08
2.7772322e-08
2.7772321e-08
2.7772321e-08
2.7772321e-08
2.777232e-08
2.7772318e-08
2.7772309e-08
2.5215525e-09
1.6612836e-08
2.3750843e-08
2.5674236e-09
1.8378433e-08
2.507836e-08
2.7059925e-09
1.8923115e-08
2.542024e-08
2.7018901e-09
2.0416814e-08
2.7649228e-08
2.8270004e-09
2.1548358e-08
2.7287967e-08
2.8436981e-09
2.2942026e-08
2.8915028e-08
2.9559081e-09
2.3832433e-08
2.9114227e-08
2.9941944e-09
2.5587893e-08
3.0908849e-08
3.1146956e-09
2.648909e-08
3.1311073e-08
3.1764142e-09
2.8359393e-08
3.2647501e-08
3.3209125e-09
2.9545083e-08
3.2958597e-08
3.4578369e-09
3.1534237e-08
3.3873062e-08
3.7615982e-09
3.2859988e-08
3.3823706e-08
4.1955624e-09
3.4827326e-08
3.4182143e-08
2.999538e-08
2.9405808e-08
2.8206095e-08
6.4442724e-08
2.1260689e-08
3.1035163e-08
3.3213946e-08
3.3447277e-08
3.1087352e-08
2.9189756e-08
2.8019447e-08
2.7343184e-08
2.6853544e-08
2.6408835e-08
2.5973206e-08
2.6148869e-08
3.189794e-08
3.777778e-08
1.5191839e-08
2.7894354e-08
2.8559858e-08
3.0141956e-08
2.9476184e-08
2.8425449e-08
2.7534142e-08
2.680502e-08
2.6221368e-08
2.5730716e-08
2.5290936e-08
2.5713533e-08
3.1483907e-08
3.3439534e-08
2.0354752e-08
2.6964682e-08
2.7098276e-08
2.8156124e-08
2.8141039e-08
2.766307e-08
2.6953872e-08
2.6214442e-08
2.5578793e-08
2.5084798e-08
2.4638814e-08
2.5211736e-08
3.0883222e-08
3.0133324e-08
2.513552e-08
2.7389509e-08
2.7345496e-08
2.7575878e-08
2.7482968e-08
2.7060777e-08
2.6381658e-08
2.5608092e-08
2.4940967e-08
2.4493526e-08
2.4080464e-08
2.4837735e-08
2.9865477e-08
2.9807952e-08
2.7772288e-08
2.7772282e-08
2.7772275e-08
2.7772265e-08
2.7772252e-08
2.7772234e-08
2.7772209e-08
2.777217e-08
2.7772108e-08
2.7771941e-08
2.7768764e-08
2.7736719e-08
2.7719525e-08
2.6701176e-08
2.7772288e-08
2.7772282e-08
2.7772275e-08
2.7772265e-08
2.7772252e-08
2.7772234e-08
2.7772209e-08
2.7772171e-08
2.7772108e-08
2.7771941e-08
2.7768707e-08
2.7736423e-08
2.7720585e-08
2.6651583e-08
2.7772288e-08
2.7772282e-08
2.7772275e-08
2.7772265e-08
2.7772252e-08
2.7772235e-08
2.7772209e-08
2.7772171e-08
2.7772108e-08
2.7771938e-08
2.7768662e-08
2.7736174e-08
2.7721138e-08
2.6598677e-08
2.7772288e-08
2.7772282e-08
2.7772275e-08
2.7772265e-08
2.7772253e-08
2.7772235e-08
2.777221e-08
2.7772171e-08
2.7772108e-08
2.7771937e-08
2.7768619e-08
2.7735924e-08
2.7721439e-08
2.6543156e-08
2.7772275e-08
2.7772265e-08
2.7772252e-08
2.7772235e-08
2.777221e-08
2.7772172e-08
2.7772109e-08
2.7771937e-08
2.7768577e-08
2.7735681e-08
2.7722427e-08
2.649048e-08
2.7772265e-08
2.7772252e-08
2.7772235e-08
2.777221e-08
2.7772172e-08
2.7772109e-08
2.7771936e-08
2.7768546e-08
2.7735489e-08
2.7723916e-08
2.6452172e-08
2.7772252e-08
2.7772235e-08
2.777221e-08
2.7772173e-08
2.777211e-08
2.7771937e-08
2.7768529e-08
2.7735407e-08
2.7725346e-08
2.6431057e-08
2.7772209e-08
2.7772173e-08
2.777211e-08
2.7771938e-08
2.7768532e-08
2.7735501e-08
2.7726264e-08
2.6427705e-08
2.7772172e-08
2.7772111e-08
2.7771939e-08
2.7768528e-08
2.7735626e-08
2.7725304e-08
2.6407018e-08
2.7772111e-08
2.7771939e-08
2.7768492e-08
2.7735339e-08
2.7722174e-08
2.6338025e-08
2.7771936e-08
2.7768427e-08
2.7735009e-08
2.7727034e-08
2.6261703e-08
2.7768494e-08
2.7735862e-08
2.7738388e-08
2.6384634e-08
2.7737052e-08
2.7721885e-08
2.6801583e-08
2.7829676e-08
2.6014875e-08
2.7772322e-08
2.7772322e-08
2.7772322e-08
2.7772322e-08
2.7772322e-08
2.7772322e-08
2.7772321e-08
2.7772321e-08
2.7772321e-08
2.777232e-08
2.7772318e-08
2.7772309e-08
2.777232e-08
2.7772318e-08
2.7772309e-08
2.777231e-08
3.2224424e-08
3.2927222e-08
3.3462165e-08
3.3923074e-08
3.428527e-08
3.4395967e-08
3.4594228e-08
3.5362293e-08
3.6029018e-08
3.6385215e-08
3.6983643e-08
3.7741095e-08
3.7913572e-08
3.8338511e-08
2.6440779e-08
2.6872219e-08
2.7304261e-08
2.7748609e-08
2.8021775e-08
2.8329245e-08
2.8707443e-08
2.9181392e-08
2.9681703e-08
3.0224054e-08
3.0855274e-08
3.1599095e-08
3.2498015e-08
3.3717705e-08
2.6453106e-08
2.6923909e-08
2.7321633e-08
2.7696104e-08
2.8077371e-08
2.8507407e-08
2.9001048e-08
2.9555991e-08
3.016723e-08
3.0853562e-08
3.1640647e-08
3.2541982e-08
3.3596991e-08
3.4847693e-08
2.689792e-08
2.7333661e-08
2.7719612e-08
2.8083924e-08
2.8463968e-08
2.8872533e-08
2.9315745e-08
2.9794099e-08
3.030083e-08
3.0846754e-08
3.1421745e-08
3.1998499e-08
3.2558983e-08
3.313522e-08
2.7287091e-08
2.7623571e-08
2.7924784e-08
2.8192318e-08
2.8457657e-08
2.8718097e-08
2.8978128e-08
2.924253e-08
2.9509881e-08
2.9781114e-08
3.0056242e-08
3.0332528e-08
3.05973e-08
3.0814997e-08
2.7666355e-08
2.7840909e-08
2.8004203e-08
2.8139768e-08
2.8263477e-08
2.8378028e-08
2.8485797e-08
2.8591969e-08
2.8692888e-08
2.8779696e-08
2.8849261e-08
2.8910678e-08
2.8964148e-08
2.8986779e-08
2.8273084e-08
2.8221399e-08
2.8237929e-08
2.8241235e-08
2.8244064e-08
2.825549e-08
2.8268915e-08
2.8280025e-08
2.8287529e-08
2.8289816e-08
2.8287505e-08
2.8283045e-08
2.8276816e-08
2.826462e-08
2.9638753e-08
2.9304225e-08
2.9168148e-08
2.8973554e-08
2.8807169e-08
2.8695036e-08
2.8611845e-08
2.8534857e-08
2.8462615e-08
2.8391659e-08
2.8322528e-08
2.8254978e-08
2.8188606e-08
2.8125148e-08
3.1915055e-08
3.150808e-08
3.1312039e-08
3.0889232e-08
3.0448085e-08
3.0082564e-08
2.9801168e-08
2.9575292e-08
2.9388237e-08
2.9210843e-08
2.9031462e-08
2.8853221e-08
2.8686114e-08
2.8538554e-08
3.5513761e-08
3.6006878e-08
3.6144878e-08
3.5411589e-08
3.4312849e-08
3.3356604e-08
3.2591865e-08
3.20087e-08
3.1561432e-08
3.1141281e-08
3.07177e-08
3.0299291e-08
2.9902629e-08
2.9559529e-08
3.5962722e-08
3.7210286e-08
3.8324465e-08
3.8186424e-08
3.7346445e-08
3.6004022e-08
3.4635299e-08
3.375353e-08
3.3204026e-08
3.2767692e-08
3.2300477e-08
3.1770514e-08
3.1241189e-08
3.0760591e-08
3.4524033e-08
3.7935982e-08
4.0295576e-08
4.1215822e-08
4.064197e-08
3.9009992e-08
3.7236429e-08
3.6123586e-08
3.549361e-08
3.4987735e-08
3.4408627e-08
3.376336e-08
3.3065622e-08
3.2388997e-08
3.4439627e-08
3.2611505e-08
3.6964949e-08
3.8025871e-08
3.8174032e-08
3.7838769e-08
3.6701105e-08
3.5329199e-08
3.4635823e-08
3.4103699e-08
3.3684193e-08
3.3277292e-08
3.2923292e-08
3.2588382e-08
4.2782379e-08
5.7339421e-08
4.8913712e-08
5.2010431e-08
5.1516644e-08
5.0467295e-08
4.6804632e-08
4.4948275e-08
4.4510269e-08
4.4480214e-08
4.4537092e-08
4.436798e-08
4.4010898e-08
4.3457386e-08
2.4262052e-07
4.5270431e-09
5.8505746e-08
2.4493507e-08
2.8200327e-08
2.7733178e-08
2.776026e-08
2.7701785e-08
2.743229e-08
2.6506874e-08
2.4567939e-08
2.2095572e-08
2.0286826e-08
1.8849936e-08
1.5186325e-07
9.932421e-09
5.465142e-08
2.5087788e-08
2.8245897e-08
2.7732962e-08
2.7761063e-08
2.7704024e-08
2.7470753e-08
2.6688297e-08
2.4966661e-08
2.2508763e-08
2.1532145e-08
2.2255034e-08
1.1698179e-07
1.3690095e-08
5.1459893e-08
2.5898422e-08
2.8259819e-08
2.7742036e-08
2.7755814e-08
2.76837e-08
2.7415592e-08
2.6642092e-08
2.5128422e-08
2.308673e-08
2.3394549e-08
2.5941876e-08
1.1051699e-07
2.0766398e-08
4.8646113e-08
2.6924856e-08
2.8263348e-08
2.7753332e-08
2.7749823e-08
2.7662194e-08
2.7356922e-08
2.6573353e-08
2.5183184e-08
2.3239519e-08
2.4336001e-08
2.8032637e-08
1.0478822e-07
2.9264126e-08
4.5947696e-08
2.8008652e-08
2.8310506e-08
2.7768245e-08
2.7744698e-08
2.7644022e-08
2.7313028e-08
2.6536694e-08
2.5286174e-08
2.3311194e-08
2.4604355e-08
3.006051e-08
9.5233916e-08
3.7762866e-08
4.4158041e-08
2.9025376e-08
2.8450832e-08
2.7790463e-08
2.7741484e-08
2.7631467e-08
2.7288939e-08
2.6541401e-08
2.5469101e-08
2.3513407e-08
2.4826927e-08
3.1726893e-08
8.2747775e-08
4.4351616e-08
4.5032403e-08
2.9980029e-08
2.8741962e-08
2.7836047e-08
2.7744186e-08
2.7628659e-08
2.7295462e-08
2.6608663e-08
2.5738217e-08
2.3905758e-08
2.5188391e-08
3.3243984e-08
7.0641519e-08
4.910859e-08
4.5785823e-08
3.1104866e-08
2.9181995e-08
2.7921393e-08
2.7755927e-08
2.7639777e-08
2.7339628e-08
2.6755479e-08
2.6107828e-08
2.4492641e-08
2.5701989e-08
3.4784286e-08
6.0519391e-08
5.1137671e-08
4.5425312e-08
3.2726349e-08
2.9715081e-08
2.8057997e-08
2.7786143e-08
2.7664909e-08
2.7423925e-08
2.6977518e-08
2.6560204e-08
2.5285254e-08
2.639794e-08
3.6383785e-08
5.37842e-08
4.9385693e-08
4.4508427e-08
3.38853e-08
3.0286857e-08
2.8235604e-08
2.7836511e-08
2.7707857e-08
2.7544874e-08
2.7265515e-08
2.7109483e-08
2.6220182e-08
2.7207079e-08
3.7917917e-08
4.8352972e-08
4.6201905e-08
4.3226048e-08
3.4399565e-08
3.0882999e-08
2.8458177e-08
2.7915332e-08
2.7765893e-08
2.7705133e-08
2.7633359e-08
2.7764373e-08
2.7367263e-08
2.8007199e-08
3.9285915e-08
4.4659365e-08
4.2456212e-08
4.140292e-08
3.4556059e-08
3.114176e-08
2.8688283e-08
2.8017941e-08
2.7840373e-08
2.7897597e-08
2.8057762e-08
2.8482956e-08
2.8600004e-08
2.9132367e-08
4.0376794e-08
4.137172e-08
3.8815372e-08
3.9190104e-08
3.4399487e-08
3.1156869e-08
2.8853467e-08
2.8153366e-08
2.7947494e-08
2.8113456e-08
2.8534232e-08
2.9241573e-08
2.9849184e-08
3.0243236e-08
4.1312852e-08
3.9857446e-08
3.5922206e-08
3.6877141e-08
3.392655e-08
3.105104e-08
2.897391e-08
2.8213833e-08
2.80327e-08
2.8330343e-08
2.9039341e-08
2.9994072e-08
3.1028697e-08
3.1207228e-08
4.1632877e-08
2.6988865e-08
3.9499087e-08
2.5265073e-08
2.8661289e-08
2.7653483e-08
2.7785515e-08
2.7769796e-08
2.7778929e-08
2.7808515e-08
2.7885122e-08
2.8076609e-08
2.828784e-08
2.8031216e-08
2.7040311e-08
2.9015879e-08
2.747259e-08
2.7992182e-08
2.7724937e-08
2.7779306e-08
2.7768641e-08
2.777043e-08
2.7770189e-08
2.7769551e-08
2.7766388e-08
2.7761085e-08
2.7763543e-08
2.7781961e-08
2.7765493e-08
2.7757545e-08
2.7793403e-08
2.776564e-08
2.7773377e-08
2.777071e-08
2.7771248e-08
2.7771246e-08
2.77714e-08
2.7771631e-08
2.7771883e-08
2.777158e-08
2.7769345e-08
2.7762527e-08
2.774983e-08
2.7771681e-08
2.7771487e-08
2.7771901e-08
2.7771637e-08
2.7771705e-08
2.7771691e-08
2.7771707e-08
2.7771725e-08
2.7771748e-08
2.7771774e-08
2.7771825e-08
2.777191e-08
2.7771872e-08
2.777113e-08
2.7771967e-08
2.7771951e-08
2.7771946e-08
2.7771947e-08
2.7771939e-08
2.777194e-08
2.7771942e-08
2.7771947e-08
2.7771954e-08
2.7771963e-08
2.7771973e-08
2.7771983e-08
2.7771994e-08
2.7772003e-08
2.7772078e-08
2.7772073e-08
2.7772072e-08
2.7772071e-08
2.777207e-08
2.7772068e-08
2.7772068e-08
2.777207e-08
2.7772072e-08
2.7772076e-08
2.7772081e-08
2.7772086e-08
2.7772093e-08
2.7772099e-08
2.7772148e-08
2.7772144e-08
2.7772144e-08
2.7772143e-08
2.7772144e-08
2.7772142e-08
2.7772142e-08
2.7772143e-08
2.7772144e-08
2.7772145e-08
2.7772148e-08
2.777215e-08
2.7772154e-08
2.7772158e-08
2.7772191e-08
2.7772189e-08
2.7772189e-08
2.7772188e-08
2.7772189e-08
2.7772189e-08
2.7772189e-08
2.7772189e-08
2.7772189e-08
2.777219e-08
2.7772192e-08
2.7772193e-08
2.7772195e-08
2.7772197e-08
2.777222e-08
2.7772219e-08
2.7772219e-08
2.7772219e-08
2.7772219e-08
2.7772219e-08
2.777222e-08
2.777222e-08
2.777222e-08
2.7772221e-08
2.7772221e-08
2.7772222e-08
2.7772223e-08
2.7772225e-08
2.7772241e-08
2.777224e-08
2.777224e-08
2.777224e-08
2.777224e-08
2.777224e-08
2.7772241e-08
2.7772241e-08
2.7772241e-08
2.7772242e-08
2.7772242e-08
2.7772243e-08
2.7772244e-08
2.7772244e-08
2.7772255e-08
2.7772255e-08
2.7772255e-08
2.7772255e-08
2.7772255e-08
2.7772255e-08
2.7772256e-08
2.7772256e-08
2.7772256e-08
2.7772257e-08
2.7772258e-08
2.7772258e-08
2.7772259e-08
2.7772259e-08
2.7772267e-08
2.7772266e-08
2.7772266e-08
2.7772266e-08
2.7772267e-08
2.7772267e-08
2.7772267e-08
2.7772267e-08
2.7772268e-08
2.7772268e-08
2.7772269e-08
2.7772269e-08
2.777227e-08
2.777227e-08
2.7772275e-08
2.7772275e-08
2.7772275e-08
2.7772275e-08
2.7772275e-08
2.7772276e-08
2.7772276e-08
2.7772276e-08
2.7772276e-08
2.7772277e-08
2.7772277e-08
2.7772278e-08
2.7772278e-08
2.7772278e-08
2.7772282e-08
2.7772282e-08
2.7772282e-08
2.7772282e-08
2.7772282e-08
2.7772282e-08
2.7772283e-08
2.7772283e-08
2.7772283e-08
2.7772284e-08
2.7772284e-08
2.7772284e-08
2.7772285e-08
2.7772285e-08
3.8446759e-08
2.7777646e-08
2.7812797e-08
2.7771918e-08
2.7771919e-08
2.7772046e-08
2.7772122e-08
2.7772171e-08
2.7772204e-08
2.7772227e-08
2.7772245e-08
2.7772257e-08
2.7772267e-08
2.7772275e-08
3.8199625e-08
2.7771993e-08
2.7812062e-08
2.7772011e-08
2.7771939e-08
2.7772062e-08
2.7772133e-08
2.777218e-08
2.7772211e-08
2.7772233e-08
2.7772249e-08
2.7772261e-08
2.777227e-08
2.7772278e-08
3.691081e-08
2.7971725e-08
2.7792396e-08
2.7772063e-08
2.7771954e-08
2.7772072e-08
2.7772142e-08
2.7772187e-08
2.7772217e-08
2.7772238e-08
2.7772253e-08
2.7772264e-08
2.7772273e-08
2.777228e-08
2.7772322e-08
2.7772322e-08
2.7772322e-08
2.7772322e-08
2.7772322e-08
2.7772322e-08
2.7772322e-08
2.7772322e-08
2.7772322e-08
2.7772322e-08
2.7772322e-08
2.7772322e-08
2.7772322e-08
2.7772322e-08
2.7772322e-08
2.7772322e-08
2.7772322e-08
2.7772322e-08
2.7772322e-08
2.7772322e-08
2.7772322e-08
2.7772322e-08
2.7772322e-08
2.7772322e-08
2.7772322e-08
2.7772322e-08
2.7772322e-08
2.7772322e-08
2.7772322e-08
2.7772322e-08
2.7772322e-08
2.7772322e-08
2.7772322e-08
2.7772322e-08
2.7772321e-08
2.7772321e-08
2.7772322e-08
2.7772322e-08
2.7772322e-08
2.7772322e-08
2.7772322e-08
2.7772322e-08
2.7772322e-08
2.7772322e-08
2.7772321e-08
2.7772321e-08
2.7772321e-08
2.7772322e-08
2.7772322e-08
2.7772322e-08
2.7772322e-08
2.7772322e-08
2.7772322e-08
2.7772322e-08
2.7772322e-08
2.7772321e-08
2.7772321e-08
2.7772321e-08
2.777232e-08
2.7772322e-08
2.7772322e-08
2.7772322e-08
2.7772322e-08
2.7772322e-08
2.7772322e-08
2.7772322e-08
2.7772322e-08
2.7772321e-08
2.7772321e-08
2.7772321e-08
2.777232e-08
2.7772318e-08
2.7772322e-08
2.7772322e-08
2.7772322e-08
2.7772322e-08
2.7772322e-08
2.7772322e-08
2.7772322e-08
2.7772322e-08
2.7772321e-08
2.7772321e-08
2.7772321e-08
2.777232e-08
2.7772318e-08
2.7772309e-08
2.7772322e-08
2.7772322e-08
2.7772322e-08
2.7772322e-08
2.7772322e-08
2.7772322e-08
2.7772322e-08
2.7772322e-08
2.7772321e-08
2.7772321e-08
2.7772321e-08
2.777232e-08
2.7772318e-08
2.7772309e-08
2.7772322e-08
2.7772322e-08
2.7772322e-08
2.7772322e-08
2.7772322e-08
2.7772322e-08
2.7772322e-08
2.7772322e-08
2.7772321e-08
2.7772321e-08
2.7772321e-08
2.777232e-08
2.7772318e-08
2.7772309e-08
2.7772322e-08
2.7772322e-08
2.7772322e-08
2.7772322e-08
2.7772322e-08
2.7772322e-08
2.7772322e-08
2.7772322e-08
2.7772321e-08
2.7772321e-08
2.7772321e-08
2.777232e-08
2.7772318e-08
2.7772308e-08
2.7772322e-08
2.7772322e-08
2.7772322e-08
2.7772322e-08
2.7772322e-08
2.7772322e-08
2.7772322e-08
2.7772322e-08
2.7772321e-08
2.7772321e-08
2.7772321e-08
2.777232e-08
2.7772318e-08
2.7772308e-08
2.7772308e-08
2.7772318e-08
2.777232e-08
2.7772321e-08
2.7772321e-08
2.7772321e-08
2.7772322e-08
2.7772322e-08
2.7772322e-08
2.7772322e-08
2.7772322e-08
2.7772322e-08
2.7772322e-08
2.7772322e-08
2.7772308e-08
2.7772318e-08
2.777232e-08
2.7772321e-08
2.7772321e-08
2.7772321e-08
2.7772322e-08
2.7772322e-08
2.7772322e-08
2.7772322e-08
2.7772322e-08
2.7772322e-08
2.7772322e-08
2.7772322e-08
2.7772308e-08
2.7772318e-08
2.777232e-08
2.7772321e-08
2.7772321e-08
2.7772321e-08
2.7772322e-08
2.7772322e-08
2.7772322e-08
2.7772322e-08
2.7772322e-08
2.7772322e-08
2.7772322e-08
2.7772322e-08
2.7772308e-08
2.7772318e-08
2.777232e-08
2.7772321e-08
2.7772321e-08
2.7772321e-08
2.7772322e-08
2.7772322e-08
2.7772322e-08
2.7772322e-08
2.7772322e-08
2.7772322e-08
2.7772322e-08
2.7772322e-08
2.7772308e-08
2.7772318e-08
2.777232e-08
2.7772321e-08
2.7772321e-08
2.7772321e-08
2.7772322e-08
2.7772322e-08
2.7772322e-08
2.7772322e-08
2.7772322e-08
2.7772322e-08
2.7772322e-08
2.7772322e-08
2.7772308e-08
2.7772318e-08
2.777232e-08
2.7772321e-08
2.7772321e-08
2.7772321e-08
2.7772322e-08
2.7772322e-08
2.7772322e-08
2.7772322e-08
2.7772322e-08
2.7772322e-08
2.7772322e-08
2.7772322e-08
2.7772308e-08
2.7772318e-08
2.777232e-08
2.7772321e-08
2.7772321e-08
2.7772321e-08
2.7772322e-08
2.7772322e-08
2.7772322e-08
2.7772322e-08
2.7772322e-08
2.7772322e-08
2.7772322e-08
2.7772322e-08
2.7772308e-08
2.7772318e-08
2.777232e-08
2.7772321e-08
2.7772321e-08
2.7772321e-08
2.7772322e-08
2.7772322e-08
2.7772322e-08
2.7772322e-08
2.7772322e-08
2.7772322e-08
2.7772322e-08
2.7772308e-08
2.7772318e-08
2.777232e-08
2.7772321e-08
2.7772321e-08
2.7772321e-08
2.7772322e-08
2.7772322e-08
2.7772322e-08
2.7772322e-08
2.7772322e-08
2.7772322e-08
2.7772308e-08
2.7772318e-08
2.777232e-08
2.7772321e-08
2.7772321e-08
2.7772321e-08
2.7772322e-08
2.7772322e-08
2.7772322e-08
2.7772322e-08
2.7772322e-08
2.7772308e-08
2.7772317e-08
2.777232e-08
2.7772321e-08
2.7772321e-08
2.7772321e-08
2.7772322e-08
2.7772322e-08
2.7772322e-08
2.7772322e-08
2.7772308e-08
2.7772317e-08
2.777232e-08
2.7772321e-08
2.7772321e-08
2.7772321e-08
2.7772322e-08
2.7772322e-08
2.7772322e-08
2.7772308e-08
2.7772317e-08
2.777232e-08
2.7772321e-08
2.7772321e-08
2.7772321e-08
2.7772322e-08
2.7772322e-08
2.7772308e-08
2.7772317e-08
2.777232e-08
2.7772321e-08
2.7772321e-08
2.7772321e-08
2.7772322e-08
2.7772322e-08
2.7772321e-08
2.7772321e-08
2.7772321e-08
2.777232e-08
2.7772317e-08
2.7772307e-08
2.7772321e-08
2.777232e-08
2.7772317e-08
2.7772307e-08
2.7772306e-08
2.8347103e-08
2.6657989e-08
2.6815475e-08
2.6629387e-08
2.7683433e-08
2.774931e-08
2.7747216e-08
2.7746162e-08
2.7721691e-08
2.7731429e-08
2.7728714e-08
2.7727342e-08
2.7768472e-08
2.7768947e-08
2.7768638e-08
2.7768462e-08
2.7771923e-08
2.7771936e-08
2.7771924e-08
2.7771915e-08
2.7772104e-08
2.7772114e-08
2.7772106e-08
2.7772105e-08
2.7772162e-08
2.777217e-08
2.7772172e-08
2.7772168e-08
2.77722e-08
2.7772206e-08
2.7772209e-08
2.7772208e-08
2.7772226e-08
2.777223e-08
2.7772232e-08
2.7772233e-08
2.7772245e-08
2.7772248e-08
2.777225e-08
2.7772251e-08
2.777226e-08
2.7772261e-08
2.7772263e-08
2.7772263e-08
2.7772271e-08
2.7772272e-08
2.7772272e-08
2.7772273e-08
2.7772279e-08
2.777228e-08
2.777228e-08
2.7772281e-08
2.7772285e-08
2.7772286e-08
2.7772286e-08
2.7772287e-08
2.7772288e-08
2.7772287e-08
2.7772287e-08
2.7772287e-08
2.7772287e-08
2.7772287e-08
2.7772287e-08
2.7772282e-08
2.7772281e-08
2.7772281e-08
2.7772281e-08
2.7772281e-08
2.7772281e-08
2.7772274e-08
2.7772274e-08
2.7772274e-08
2.7772274e-08
2.7772273e-08
2.7772274e-08
2.7772265e-08
2.7772264e-08
2.7772264e-08
2.7772264e-08
2.7772264e-08
2.7772252e-08
2.7772251e-08
2.7772251e-08
2.7772251e-08
2.7772251e-08
2.7772234e-08
2.7772233e-08
2.7772233e-08
2.7772233e-08
2.7772208e-08
2.7772208e-08
2.7772207e-08
2.7772208e-08
2.777217e-08
2.7772169e-08
2.777217e-08
2.7772109e-08
2.7772108e-08
2.7772107e-08
2.7771944e-08
2.7771944e-08
2.7768896e-08
2.776896e-08
2.7737312e-08
)
;

boundaryField
{
    Side
    {
        type            empty;
    }
    Inlet
    {
        type            inletOutlet;
        inletValue      uniform 3.9592226e-07;
        value           nonuniform List<scalar> 
28
(
2.7772322e-08
2.7772322e-08
2.7772322e-08
2.7772322e-08
2.7772322e-08
2.7772322e-08
2.7772322e-08
3.9592226e-07
3.9592226e-07
3.9592226e-07
3.9592226e-07
3.9592226e-07
3.9592226e-07
3.9592226e-07
3.9592226e-07
3.9592226e-07
3.9592226e-07
3.9592226e-07
3.9592226e-07
3.9592226e-07
3.9592226e-07
3.9592226e-07
3.9592226e-07
3.9592226e-07
3.9592226e-07
3.9592226e-07
3.9592226e-07
3.9592226e-07
)
;
    }
    Airfoil
    {
        type            nutUSpaldingWallFunction;
        value           nonuniform List<scalar> 
60
(
4.4852625e-06
4.5537417e-06
4.6106547e-06
4.6671583e-06
4.7225611e-06
4.7766312e-06
4.8285165e-06
4.8779094e-06
4.9268403e-06
4.9795213e-06
5.0366978e-06
5.0859605e-06
5.0993322e-06
5.0404648e-06
1.4570287e-05
1.4579902e-05
1.4591528e-05
1.4605247e-05
1.4619261e-05
1.4631122e-05
1.4640493e-05
1.4649379e-05
1.4667149e-05
1.469557e-05
1.4710506e-05
1.4670924e-05
1.4660803e-05
1.4411197e-05
2.2374076e-06
2.0911087e-06
1.9714604e-06
1.9053151e-06
1.866186e-06
1.8666318e-06
1.9198421e-06
1.9876673e-06
2.0347203e-06
2.0597287e-06
2.075683e-06
2.0940081e-06
2.1189617e-06
2.1481168e-06
3.7295284e-06
3.499862e-06
3.2240586e-06
3.0109013e-06
2.8642798e-06
2.7511877e-06
2.6526249e-06
2.5622418e-06
2.47934e-06
2.4030907e-06
2.3351652e-06
2.2773931e-06
2.2285992e-06
2.1814926e-06
1.4379124e-05
1.4506921e-05
1.4472918e-05
1.4408779e-05
)
;
    }
    Outlet
    {
        type            zeroGradient;
    }
    Flap
    {
        type            nutUSpaldingWallFunction;
        value           nonuniform List<scalar> 
36
(
2.027218e-06
1.9734969e-06
1.9230756e-06
1.8750493e-06
1.8281585e-06
2.0714163e-06
2.086706e-06
2.1078698e-06
2.1367968e-06
2.1781171e-06
2.2246088e-06
2.266351e-06
2.303014e-06
2.3401104e-06
2.3802799e-06
2.422688e-06
2.4677041e-06
2.5169795e-06
2.5721276e-06
1.2342034e-06
1.810368e-06
2.2665729e-06
2.7364534e-06
3.0014984e-06
3.1431406e-06
3.2102427e-06
3.2082192e-06
3.1537839e-06
3.0694951e-06
2.9644776e-06
2.8672598e-06
2.7644082e-06
2.6683232e-06
1.2249891e-05
1.2529848e-05
1.2382099e-05
)
;
    }
    procBoundary2to1
    {
        type            processor;
        value           nonuniform List<scalar> 
73
(
2.7772322e-08
2.7772322e-08
2.7772322e-08
2.7772322e-08
2.7772322e-08
2.7772322e-08
2.7772322e-08
2.7772322e-08
2.7772321e-08
2.7772321e-08
2.7772321e-08
2.777232e-08
2.7772318e-08
2.7772309e-08
2.7717199e-08
2.679749e-08
2.7772322e-08
2.7772322e-08
2.7772322e-08
2.7772322e-08
2.7772322e-08
2.7772322e-08
2.7772322e-08
2.7772322e-08
2.7772322e-08
2.7772322e-08
2.7772322e-08
2.7772322e-08
2.7772321e-08
2.7772321e-08
2.7772321e-08
2.7772321e-08
2.7772321e-08
2.777232e-08
2.777232e-08
2.7772318e-08
2.7772318e-08
2.7772309e-08
2.7772309e-08
2.7772286e-08
2.6534342e-08
2.7745492e-08
2.7725359e-08
2.7768211e-08
2.7771901e-08
2.7772099e-08
2.7772165e-08
2.7772205e-08
2.777223e-08
2.7772248e-08
2.7772262e-08
2.7772272e-08
2.777228e-08
2.7772286e-08
2.7772287e-08
2.7772281e-08
2.7772281e-08
2.7772273e-08
2.7772264e-08
2.7772264e-08
2.7772251e-08
2.7772233e-08
2.7772233e-08
2.7772207e-08
2.7772169e-08
2.7772169e-08
2.7772105e-08
2.7771943e-08
2.7771943e-08
2.7769034e-08
2.7737563e-08
2.7737563e-08
2.7717199e-08
)
;
    }
    procBoundary2to3
    {
        type            processor;
        value           nonuniform List<scalar> 
113
(
2.7772322e-08
2.7772322e-08
2.6213046e-08
2.9204675e-08
2.6811393e-08
2.6336788e-08
2.7290082e-08
2.746519e-08
2.8353081e-08
2.8463585e-08
2.9131875e-08
2.932192e-08
2.9710733e-08
2.9787223e-08
2.9945014e-08
2.9921364e-08
2.9921364e-08
2.8238963e-08
2.7992107e-08
2.7950581e-08
2.7950581e-08
2.9204675e-08
2.8468366e-08
2.7079723e-08
2.7624579e-08
2.7561043e-08
2.7476168e-08
2.7191165e-08
2.6617409e-08
2.583681e-08
2.501567e-08
2.4321021e-08
2.3948882e-08
2.3569312e-08
2.4409019e-08
2.4409019e-08
2.914903e-08
2.7772288e-08
2.777231e-08
2.7772282e-08
2.7772282e-08
2.7772275e-08
2.7772275e-08
2.7772265e-08
2.7772265e-08
2.7772253e-08
2.7772235e-08
2.7772235e-08
2.777221e-08
2.777221e-08
2.7772173e-08
2.7772173e-08
2.7772113e-08
2.7772113e-08
2.7771942e-08
2.7771942e-08
2.7768929e-08
2.7768929e-08
2.7741335e-08
2.7741335e-08
2.7772322e-08
2.7772322e-08
2.7772322e-08
2.7772322e-08
2.7772322e-08
2.7772322e-08
2.7772322e-08
2.7772321e-08
2.7772321e-08
2.7772321e-08
2.7772321e-08
2.777232e-08
2.7772318e-08
2.7772318e-08
2.777231e-08
3.8884218e-08
2.778275e-08
2.7818144e-08
2.7771919e-08
2.7771896e-08
2.7772031e-08
2.777211e-08
2.7772162e-08
2.7772197e-08
2.7772222e-08
2.777224e-08
2.7772254e-08
2.7772264e-08
2.7772272e-08
2.7772322e-08
2.7772322e-08
2.7772322e-08
2.7772322e-08
2.7772322e-08
2.7772322e-08
2.7772322e-08
2.7772322e-08
2.7772322e-08
2.7772322e-08
2.7772322e-08
2.7772322e-08
2.7772322e-08
2.7772322e-08
2.7772322e-08
2.7772322e-08
2.7772321e-08
2.7772321e-08
2.7772321e-08
2.7772321e-08
2.777232e-08
2.7772317e-08
2.7772317e-08
2.7772306e-08
)
;
    }
}


// ************************************************************************* //
