/*--------------------------------*- C++ -*----------------------------------*\
| =========                 |                                                 |
| \\      /  F ield         | OpenFOAM: The Open Source CFD Toolbox           |
|  \\    /   O peration     | Version:  2206                                  |
|   \\  /    A nd           | Website:  www.openfoam.com                      |
|    \\/     M anipulation  |                                                 |
\*---------------------------------------------------------------------------*/
FoamFile
{
    version     2.0;
    format      ascii;
    arch        "LSB;label=32;scalar=64";
    class       volScalarField;
    location    "0.01";
    object      nuTilda;
}
// * * * * * * * * * * * * * * * * * * * * * * * * * * * * * * * * * * * * * //

dimensions      [0 2 -1 0 0 0 0];

internalField   nonuniform List<scalar> 
1396
(
3.9592226e-07
3.9592226e-07
3.9592226e-07
3.9592226e-07
3.9592226e-07
3.9592226e-07
3.9592226e-07
3.9592226e-07
3.9592226e-07
3.9592226e-07
3.9592226e-07
3.9592225e-07
3.9592224e-07
3.9592221e-07
3.9592226e-07
3.9592226e-07
3.9592226e-07
3.9592226e-07
3.9592226e-07
3.9592226e-07
3.9592226e-07
3.9592226e-07
3.9592226e-07
3.9592226e-07
3.9592226e-07
3.9592225e-07
3.9592224e-07
3.9592221e-07
3.9592226e-07
3.9592226e-07
3.9592226e-07
3.9592226e-07
3.9592226e-07
3.9592226e-07
3.9592226e-07
3.9592226e-07
3.9592226e-07
3.9592226e-07
3.9592226e-07
3.9592225e-07
3.9592224e-07
3.9592221e-07
3.9592226e-07
3.9592226e-07
3.9592226e-07
3.9592226e-07
3.9592226e-07
3.9592226e-07
3.9592226e-07
3.9592226e-07
3.9592226e-07
3.9592226e-07
3.9592226e-07
3.9592225e-07
3.9592224e-07
3.9592221e-07
3.9592226e-07
3.9592226e-07
3.9592226e-07
3.9592226e-07
3.9592226e-07
3.9592226e-07
3.9592226e-07
3.9592226e-07
3.9592226e-07
3.9592226e-07
3.9592226e-07
3.9592225e-07
3.9592224e-07
3.9592221e-07
3.9592226e-07
3.9592226e-07
3.9592226e-07
3.9592226e-07
3.9592226e-07
3.9592226e-07
3.9592226e-07
3.9592226e-07
3.9592226e-07
3.9592226e-07
3.9592226e-07
3.9592225e-07
3.9592224e-07
3.9592221e-07
3.9592226e-07
3.9592226e-07
3.9592226e-07
3.9592226e-07
3.9592226e-07
3.9592226e-07
3.9592226e-07
3.9592226e-07
3.9592226e-07
3.9592226e-07
3.9592226e-07
3.9592225e-07
3.9592224e-07
3.9592221e-07
4.1301762e-07
4.2026386e-07
4.0070334e-07
4.1164708e-07
4.2520438e-07
4.0179775e-07
4.1631681e-07
4.2451788e-07
4.0114875e-07
4.1478982e-07
4.2816113e-07
4.0742553e-07
4.1807994e-07
4.2987459e-07
4.0405675e-07
4.1710076e-07
4.3264445e-07
4.0877862e-07
4.1925415e-07
4.3275945e-07
4.0825071e-07
4.1822606e-07
4.366887e-07
4.1343452e-07
4.1994665e-07
4.3645429e-07
4.1346895e-07
4.1974242e-07
4.3971464e-07
4.1705759e-07
4.2223098e-07
4.3981041e-07
4.1744829e-07
4.2328889e-07
4.4258223e-07
4.2035855e-07
4.2651653e-07
4.4249284e-07
4.2055967e-07
4.2787951e-07
4.4481971e-07
4.2284872e-07
4.0778168e-07
3.9452457e-07
3.9665944e-07
4.6962772e-07
3.7816518e-07
3.9422483e-07
3.9664694e-07
3.9954543e-07
3.9925642e-07
3.9786371e-07
3.9657397e-07
3.9592247e-07
3.9582115e-07
3.9585082e-07
3.9579666e-07
3.9703822e-07
4.2096051e-07
4.5203424e-07
3.6514431e-07
4.0131538e-07
3.9656307e-07
3.987634e-07
3.9833097e-07
3.9710995e-07
3.960712e-07
3.9558951e-07
3.9564094e-07
3.9577769e-07
3.9583253e-07
3.9728778e-07
4.2057723e-07
4.2758889e-07
3.7927754e-07
4.0051454e-07
3.9658852e-07
3.9768333e-07
3.9708352e-07
3.9623268e-07
3.9549487e-07
3.952872e-07
3.955257e-07
3.9580514e-07
3.9597528e-07
3.9731412e-07
4.202739e-07
4.0869524e-07
3.9078029e-07
3.984982e-07
3.965486e-07
3.9658289e-07
3.9591931e-07
3.9527623e-07
3.9491249e-07
3.9499053e-07
3.9540601e-07
3.9586089e-07
3.9627374e-07
3.9768128e-07
4.1861218e-07
4.206247e-07
3.9592213e-07
3.9592211e-07
3.9592208e-07
3.9592204e-07
3.95922e-07
3.9592193e-07
3.9592183e-07
3.9592169e-07
3.9592146e-07
3.9592091e-07
3.9591595e-07
3.9587124e-07
3.9602272e-07
4.1187889e-07
3.9592213e-07
3.9592211e-07
3.9592208e-07
3.9592205e-07
3.95922e-07
3.9592193e-07
3.9592183e-07
3.9592169e-07
3.9592146e-07
3.9592091e-07
3.9591584e-07
3.9587052e-07
3.9602433e-07
4.1189313e-07
3.9592213e-07
3.9592211e-07
3.9592208e-07
3.9592205e-07
3.95922e-07
3.9592193e-07
3.9592184e-07
3.9592169e-07
3.9592146e-07
3.959209e-07
3.9591577e-07
3.9586991e-07
3.9602436e-07
4.1188359e-07
3.9592213e-07
3.9592211e-07
3.9592208e-07
3.9592205e-07
3.95922e-07
3.9592193e-07
3.9592184e-07
3.9592169e-07
3.9592146e-07
3.9592089e-07
3.959157e-07
3.9586936e-07
3.9602407e-07
4.1186773e-07
3.9592208e-07
3.9592205e-07
3.95922e-07
3.9592193e-07
3.9592184e-07
3.9592169e-07
3.9592146e-07
3.9592089e-07
3.9591564e-07
3.958689e-07
3.9602631e-07
4.118507e-07
3.9592205e-07
3.95922e-07
3.9592193e-07
3.9592184e-07
3.959217e-07
3.9592146e-07
3.9592089e-07
3.9591559e-07
3.9586859e-07
3.960294e-07
4.1183388e-07
3.95922e-07
3.9592193e-07
3.9592184e-07
3.959217e-07
3.9592146e-07
3.9592089e-07
3.9591557e-07
3.9586849e-07
3.9603171e-07
4.1181912e-07
3.9592184e-07
3.959217e-07
3.9592146e-07
3.959209e-07
3.9591558e-07
3.9586853e-07
3.9603148e-07
4.1180721e-07
3.959217e-07
3.9592147e-07
3.959209e-07
3.9591555e-07
3.9586837e-07
3.9602689e-07
4.1179839e-07
3.9592147e-07
3.959209e-07
3.959155e-07
3.9586764e-07
3.9601877e-07
4.1178983e-07
3.9592089e-07
3.9591543e-07
3.9586776e-07
3.9603646e-07
4.1176468e-07
3.9591552e-07
3.9587024e-07
3.9604705e-07
4.1185519e-07
3.9586987e-07
3.9599837e-07
4.115737e-07
3.9631507e-07
4.1699165e-07
3.9592226e-07
3.9592226e-07
3.9592226e-07
3.9592226e-07
3.9592226e-07
3.9592226e-07
3.9592226e-07
3.9592226e-07
3.9592226e-07
3.9592225e-07
3.9592224e-07
3.9592221e-07
3.9592225e-07
3.9592224e-07
3.9592221e-07
3.9592221e-07
4.209592e-07
4.2152956e-07
4.2158286e-07
4.2216798e-07
4.2338487e-07
4.2361026e-07
4.236908e-07
4.2552574e-07
4.2714468e-07
4.2783224e-07
4.2902864e-07
4.3068658e-07
4.3110981e-07
4.3144442e-07
3.9669926e-07
3.9681695e-07
3.9707538e-07
3.9761308e-07
3.9767931e-07
3.9772792e-07
3.9777764e-07
3.9795845e-07
3.9807558e-07
3.9817653e-07
3.9833174e-07
3.9855296e-07
3.9883907e-07
3.9916126e-07
3.958037e-07
3.9585018e-07
3.9596149e-07
3.9608693e-07
3.9620906e-07
3.9635323e-07
3.9654123e-07
3.9678636e-07
3.9707036e-07
3.9740065e-07
3.978152e-07
3.9831578e-07
3.989331e-07
3.9962781e-07
3.9597864e-07
3.960961e-07
3.962726e-07
3.9648292e-07
3.967439e-07
3.9705622e-07
3.9742937e-07
3.9786682e-07
3.9833876e-07
3.9886221e-07
3.9938975e-07
3.9983151e-07
4.0018783e-07
4.0060019e-07
3.9604051e-07
3.9619221e-07
3.964193e-07
3.9662713e-07
3.9686171e-07
3.9710989e-07
3.9737717e-07
3.9766157e-07
3.9795262e-07
3.9824157e-07
3.9851541e-07
3.98772e-07
3.9900324e-07
3.9918207e-07
3.9617755e-07
3.9630624e-07
3.9646939e-07
3.9660424e-07
3.9673849e-07
3.9686905e-07
3.9699927e-07
3.9713354e-07
3.9726627e-07
3.9737034e-07
3.9743254e-07
3.9748181e-07
3.9752621e-07
3.9751619e-07
3.9683406e-07
3.9677853e-07
3.9676334e-07
3.9676819e-07
3.967639e-07
3.9676855e-07
3.9677457e-07
3.9677908e-07
3.967808e-07
3.9677555e-07
3.9676186e-07
3.9674237e-07
3.9671732e-07
3.9668958e-07
3.9823895e-07
3.9800932e-07
3.9781996e-07
3.9760441e-07
3.9742681e-07
3.9727983e-07
3.971529e-07
3.9704249e-07
3.9694234e-07
3.9684702e-07
3.9675021e-07
3.9665334e-07
3.9655139e-07
3.9644377e-07
3.9953086e-07
3.9946651e-07
3.9935972e-07
3.990629e-07
3.9873245e-07
3.9837652e-07
3.9807062e-07
3.9782639e-07
3.976233e-07
3.9743743e-07
3.9725429e-07
3.970717e-07
3.9689419e-07
3.9671971e-07
3.9994812e-07
4.0032359e-07
4.0091976e-07
4.0091046e-07
4.0047781e-07
3.9997091e-07
3.9943188e-07
3.9895797e-07
3.9864934e-07
3.9832726e-07
3.9800398e-07
3.9769834e-07
3.9739321e-07
3.9710762e-07
3.9667257e-07
3.9789064e-07
3.9874292e-07
3.9886029e-07
3.9885512e-07
3.9872069e-07
3.9839316e-07
3.9816735e-07
3.9791536e-07
3.9774007e-07
3.9759651e-07
3.9743058e-07
3.9724894e-07
3.9700452e-07
3.9248657e-07
3.9317533e-07
3.9357013e-07
3.9460682e-07
3.9522717e-07
3.9553897e-07
3.9574565e-07
3.9573503e-07
3.9570518e-07
3.957713e-07
3.9582438e-07
3.9591474e-07
3.959044e-07
3.958924e-07
4.0326187e-07
3.8964294e-07
3.9508646e-07
3.9454143e-07
3.9350661e-07
3.952125e-07
3.9676442e-07
3.9606377e-07
3.9582016e-07
3.9534328e-07
3.9504496e-07
3.9504194e-07
3.9546804e-07
3.961727e-07
4.5508593e-07
4.5950292e-07
4.3539021e-07
4.3649111e-07
4.3230817e-07
4.3225223e-07
4.2949545e-07
4.2829343e-07
4.288342e-07
4.2926428e-07
4.2969488e-07
4.2981908e-07
4.2976586e-07
4.2982978e-07
4.2074353e-07
3.8291591e-07
4.0695661e-07
3.9378047e-07
3.9645194e-07
3.9585587e-07
3.9589068e-07
3.9578287e-07
3.9539809e-07
3.9459587e-07
3.9403691e-07
3.9459293e-07
3.9760591e-07
4.249849e-07
4.1279007e-07
3.9075681e-07
4.0471546e-07
3.9440211e-07
3.9653307e-07
3.9585355e-07
3.9588224e-07
3.9574043e-07
3.9527319e-07
3.9433829e-07
3.9365308e-07
3.9381817e-07
3.9648141e-07
4.3236516e-07
4.0889589e-07
3.9496463e-07
4.0396658e-07
3.9483938e-07
3.9659009e-07
3.9586755e-07
3.9586677e-07
3.9569181e-07
3.9515298e-07
3.9417824e-07
3.9355156e-07
3.9336577e-07
3.9541131e-07
4.3264637e-07
4.1600067e-07
3.9824099e-07
4.0362988e-07
3.9523716e-07
3.9663029e-07
3.9588776e-07
3.9585262e-07
3.9565142e-07
3.9508591e-07
3.9416349e-07
3.9367174e-07
3.9340149e-07
3.9595842e-07
4.3087231e-07
4.2079968e-07
3.9743718e-07
4.0374729e-07
3.9602385e-07
3.9671189e-07
3.9591989e-07
3.9584097e-07
3.9562019e-07
3.9505335e-07
3.9421418e-07
3.9386904e-07
3.9358066e-07
3.9572718e-07
4.3113941e-07
4.235695e-07
3.9694735e-07
4.0367452e-07
3.9689542e-07
3.9686607e-07
3.9596156e-07
3.9583511e-07
3.9560198e-07
3.9505161e-07
3.943017e-07
3.9409099e-07
3.936923e-07
3.9560164e-07
4.3128937e-07
4.2532381e-07
3.9899397e-07
4.0310822e-07
3.9757931e-07
3.9715256e-07
3.960333e-07
3.9584484e-07
3.9560355e-07
3.9509002e-07
3.9443219e-07
3.9431381e-07
3.9387082e-07
3.9559448e-07
4.3133488e-07
4.277698e-07
4.0075014e-07
4.0294397e-07
3.9831814e-07
3.9757333e-07
3.9614683e-07
3.9586808e-07
3.9563181e-07
3.9517522e-07
3.9462748e-07
3.9456605e-07
3.9415235e-07
3.9552959e-07
4.313811e-07
4.3076158e-07
4.0248307e-07
4.0257283e-07
3.996515e-07
3.9807082e-07
3.9631173e-07
3.9592153e-07
3.9568286e-07
3.9530759e-07
3.9487757e-07
3.9482095e-07
3.9455709e-07
3.956099e-07
4.3141255e-07
4.3325552e-07
4.0213436e-07
4.0272808e-07
4.0032729e-07
3.986585e-07
3.9652657e-07
3.9601075e-07
3.9576796e-07
3.9547979e-07
3.9516437e-07
3.9514586e-07
3.9475678e-07
3.955327e-07
4.3146565e-07
4.3446026e-07
4.0208736e-07
4.0273231e-07
4.0091269e-07
3.9917663e-07
3.9680079e-07
3.9614932e-07
3.9587674e-07
3.9570682e-07
3.9550285e-07
3.9550459e-07
3.9515258e-07
3.9512046e-07
4.3142046e-07
4.3447965e-07
4.0147163e-07
4.0227791e-07
4.0138164e-07
3.9925807e-07
3.9709108e-07
3.9632265e-07
3.9600299e-07
3.9595837e-07
3.9588139e-07
3.9588965e-07
3.9542574e-07
3.9568392e-07
4.3092944e-07
4.3322601e-07
4.0059909e-07
4.0159389e-07
4.0136917e-07
3.9936557e-07
3.9729279e-07
3.9648713e-07
3.9616184e-07
3.9623011e-07
3.9629722e-07
3.9629297e-07
3.9564013e-07
3.9599619e-07
4.3030386e-07
4.3252891e-07
3.9976491e-07
4.0052775e-07
4.0102507e-07
3.9934017e-07
3.9746913e-07
3.96618e-07
3.9632083e-07
3.9650296e-07
3.9671657e-07
3.9668632e-07
3.957907e-07
3.9595943e-07
4.2998313e-07
3.9771955e-07
4.0048294e-07
3.9436761e-07
3.971051e-07
3.9574474e-07
3.9594723e-07
3.9591397e-07
3.9592657e-07
3.959336e-07
3.9585586e-07
3.954137e-07
3.9494818e-07
3.9574011e-07
4.0005828e-07
3.9641273e-07
3.9588327e-07
3.9613333e-07
3.9585942e-07
3.9592842e-07
3.9591097e-07
3.9591464e-07
3.9591295e-07
3.9590873e-07
3.959001e-07
3.9588354e-07
3.9585022e-07
3.9577898e-07
3.9569454e-07
3.9593138e-07
3.9593825e-07
3.959139e-07
3.959209e-07
3.9591711e-07
3.9591808e-07
3.9591819e-07
3.9591856e-07
3.9591879e-07
3.9591829e-07
3.9591564e-07
3.9590967e-07
3.9589915e-07
3.9588595e-07
3.9592005e-07
3.9591986e-07
3.9592022e-07
3.9591981e-07
3.9591991e-07
3.9591989e-07
3.9591994e-07
3.9592001e-07
3.959201e-07
3.9592019e-07
3.9592026e-07
3.9592019e-07
3.9591966e-07
3.9591825e-07
3.959209e-07
3.9592086e-07
3.9592085e-07
3.9592084e-07
3.9592082e-07
3.9592082e-07
3.9592083e-07
3.9592085e-07
3.9592087e-07
3.9592091e-07
3.9592095e-07
3.9592099e-07
3.9592103e-07
3.9592103e-07
3.9592134e-07
3.9592132e-07
3.9592132e-07
3.9592131e-07
3.9592131e-07
3.959213e-07
3.9592131e-07
3.9592131e-07
3.9592132e-07
3.9592133e-07
3.9592135e-07
3.9592137e-07
3.959214e-07
3.9592142e-07
3.959216e-07
3.9592159e-07
3.9592159e-07
3.9592159e-07
3.9592159e-07
3.9592158e-07
3.9592158e-07
3.9592159e-07
3.9592159e-07
3.959216e-07
3.959216e-07
3.9592161e-07
3.9592163e-07
3.9592164e-07
3.9592177e-07
3.9592176e-07
3.9592176e-07
3.9592176e-07
3.9592176e-07
3.9592176e-07
3.9592176e-07
3.9592176e-07
3.9592176e-07
3.9592176e-07
3.9592177e-07
3.9592177e-07
3.9592178e-07
3.9592179e-07
3.9592188e-07
3.9592187e-07
3.9592187e-07
3.9592187e-07
3.9592187e-07
3.9592187e-07
3.9592188e-07
3.9592187e-07
3.9592188e-07
3.9592188e-07
3.9592188e-07
3.9592188e-07
3.9592189e-07
3.9592189e-07
3.9592195e-07
3.9592195e-07
3.9592195e-07
3.9592195e-07
3.9592195e-07
3.9592195e-07
3.9592196e-07
3.9592195e-07
3.9592196e-07
3.9592196e-07
3.9592196e-07
3.9592196e-07
3.9592196e-07
3.9592197e-07
3.9592201e-07
3.9592201e-07
3.9592201e-07
3.9592201e-07
3.9592201e-07
3.9592201e-07
3.9592201e-07
3.9592201e-07
3.9592201e-07
3.9592202e-07
3.9592202e-07
3.9592202e-07
3.9592202e-07
3.9592202e-07
3.9592205e-07
3.9592205e-07
3.9592205e-07
3.9592205e-07
3.9592205e-07
3.9592205e-07
3.9592205e-07
3.9592205e-07
3.9592206e-07
3.9592206e-07
3.9592206e-07
3.9592206e-07
3.9592206e-07
3.9592207e-07
3.9592208e-07
3.9592208e-07
3.9592208e-07
3.9592208e-07
3.9592208e-07
3.9592209e-07
3.9592209e-07
3.9592209e-07
3.9592209e-07
3.9592209e-07
3.9592209e-07
3.9592209e-07
3.9592209e-07
3.959221e-07
3.9592211e-07
3.9592211e-07
3.9592211e-07
3.9592211e-07
3.9592211e-07
3.9592211e-07
3.9592211e-07
3.9592211e-07
3.9592211e-07
3.9592211e-07
3.9592212e-07
3.9592212e-07
3.9592212e-07
3.9592212e-07
4.1470391e-07
3.9571141e-07
3.9596539e-07
3.9592033e-07
3.9592073e-07
3.9592122e-07
3.9592151e-07
3.9592169e-07
3.9592182e-07
3.959219e-07
3.9592197e-07
3.9592202e-07
3.9592205e-07
3.9592208e-07
4.1422463e-07
3.9574891e-07
3.9596163e-07
3.9592052e-07
3.9592081e-07
3.9592128e-07
3.9592155e-07
3.9592172e-07
3.9592184e-07
3.9592192e-07
3.9592199e-07
3.9592203e-07
3.9592207e-07
3.9592209e-07
4.1215757e-07
3.9591093e-07
3.9594662e-07
3.9592056e-07
3.9592088e-07
3.9592132e-07
3.9592158e-07
3.9592175e-07
3.9592186e-07
3.9592194e-07
3.95922e-07
3.9592204e-07
3.9592208e-07
3.959221e-07
3.9592226e-07
3.9592226e-07
3.9592226e-07
3.9592226e-07
3.9592226e-07
3.9592226e-07
3.9592226e-07
3.9592226e-07
3.9592226e-07
3.9592226e-07
3.9592226e-07
3.9592226e-07
3.9592226e-07
3.9592226e-07
3.9592226e-07
3.9592226e-07
3.9592226e-07
3.9592226e-07
3.9592226e-07
3.9592226e-07
3.9592226e-07
3.9592226e-07
3.9592226e-07
3.9592226e-07
3.9592226e-07
3.9592226e-07
3.9592226e-07
3.9592226e-07
3.9592226e-07
3.9592226e-07
3.9592226e-07
3.9592226e-07
3.9592226e-07
3.9592226e-07
3.9592226e-07
3.9592226e-07
3.9592226e-07
3.9592226e-07
3.9592226e-07
3.9592226e-07
3.9592226e-07
3.9592226e-07
3.9592226e-07
3.9592226e-07
3.9592226e-07
3.9592226e-07
3.9592226e-07
3.9592226e-07
3.9592226e-07
3.9592226e-07
3.9592226e-07
3.9592226e-07
3.9592226e-07
3.9592226e-07
3.9592226e-07
3.9592226e-07
3.9592226e-07
3.9592226e-07
3.9592225e-07
3.9592226e-07
3.9592226e-07
3.9592226e-07
3.9592226e-07
3.9592226e-07
3.9592226e-07
3.9592226e-07
3.9592226e-07
3.9592226e-07
3.9592226e-07
3.9592226e-07
3.9592225e-07
3.9592224e-07
3.9592226e-07
3.9592226e-07
3.9592226e-07
3.9592226e-07
3.9592226e-07
3.9592226e-07
3.9592226e-07
3.9592226e-07
3.9592226e-07
3.9592226e-07
3.9592225e-07
3.9592225e-07
3.9592224e-07
3.9592221e-07
3.9592226e-07
3.9592226e-07
3.9592226e-07
3.9592226e-07
3.9592226e-07
3.9592226e-07
3.9592226e-07
3.9592226e-07
3.9592226e-07
3.9592226e-07
3.9592225e-07
3.9592225e-07
3.9592224e-07
3.9592221e-07
3.9592226e-07
3.9592226e-07
3.9592226e-07
3.9592226e-07
3.9592226e-07
3.9592226e-07
3.9592226e-07
3.9592226e-07
3.9592226e-07
3.9592226e-07
3.9592225e-07
3.9592225e-07
3.9592224e-07
3.9592221e-07
3.9592226e-07
3.9592226e-07
3.9592226e-07
3.9592226e-07
3.9592226e-07
3.9592226e-07
3.9592226e-07
3.9592226e-07
3.9592226e-07
3.9592226e-07
3.9592225e-07
3.9592225e-07
3.9592224e-07
3.9592221e-07
3.9592226e-07
3.9592226e-07
3.9592226e-07
3.9592226e-07
3.9592226e-07
3.9592226e-07
3.9592226e-07
3.9592226e-07
3.9592226e-07
3.9592226e-07
3.9592225e-07
3.9592225e-07
3.9592224e-07
3.9592221e-07
3.9592221e-07
3.9592224e-07
3.9592225e-07
3.9592225e-07
3.9592226e-07
3.9592226e-07
3.9592226e-07
3.9592226e-07
3.9592226e-07
3.9592226e-07
3.9592226e-07
3.9592226e-07
3.9592226e-07
3.9592226e-07
3.9592221e-07
3.9592224e-07
3.9592225e-07
3.9592225e-07
3.9592226e-07
3.9592226e-07
3.9592226e-07
3.9592226e-07
3.9592226e-07
3.9592226e-07
3.9592226e-07
3.9592226e-07
3.9592226e-07
3.9592226e-07
3.9592221e-07
3.9592224e-07
3.9592225e-07
3.9592225e-07
3.9592226e-07
3.9592226e-07
3.9592226e-07
3.9592226e-07
3.9592226e-07
3.9592226e-07
3.9592226e-07
3.9592226e-07
3.9592226e-07
3.9592226e-07
3.9592221e-07
3.9592224e-07
3.9592225e-07
3.9592225e-07
3.9592226e-07
3.9592226e-07
3.9592226e-07
3.9592226e-07
3.9592226e-07
3.9592226e-07
3.9592226e-07
3.9592226e-07
3.9592226e-07
3.9592226e-07
3.9592221e-07
3.9592224e-07
3.9592225e-07
3.9592225e-07
3.9592226e-07
3.9592226e-07
3.9592226e-07
3.9592226e-07
3.9592226e-07
3.9592226e-07
3.9592226e-07
3.9592226e-07
3.9592226e-07
3.9592226e-07
3.9592221e-07
3.9592224e-07
3.9592225e-07
3.9592225e-07
3.9592226e-07
3.9592226e-07
3.9592226e-07
3.9592226e-07
3.9592226e-07
3.9592226e-07
3.9592226e-07
3.9592226e-07
3.9592226e-07
3.9592226e-07
3.9592221e-07
3.9592224e-07
3.9592225e-07
3.9592225e-07
3.9592226e-07
3.9592226e-07
3.9592226e-07
3.9592226e-07
3.9592226e-07
3.9592226e-07
3.9592226e-07
3.9592226e-07
3.9592226e-07
3.9592226e-07
3.9592221e-07
3.9592224e-07
3.9592225e-07
3.9592225e-07
3.9592226e-07
3.9592226e-07
3.9592226e-07
3.9592226e-07
3.9592226e-07
3.9592226e-07
3.9592226e-07
3.9592226e-07
3.9592226e-07
3.9592221e-07
3.9592224e-07
3.9592225e-07
3.9592225e-07
3.9592226e-07
3.9592226e-07
3.9592226e-07
3.9592226e-07
3.9592226e-07
3.9592226e-07
3.9592226e-07
3.9592226e-07
3.9592221e-07
3.9592224e-07
3.9592225e-07
3.9592225e-07
3.9592226e-07
3.9592226e-07
3.9592226e-07
3.9592226e-07
3.9592226e-07
3.9592226e-07
3.9592226e-07
3.9592221e-07
3.9592224e-07
3.9592225e-07
3.9592225e-07
3.9592226e-07
3.9592226e-07
3.9592226e-07
3.9592226e-07
3.9592226e-07
3.9592226e-07
3.9592221e-07
3.9592224e-07
3.9592225e-07
3.9592225e-07
3.9592226e-07
3.9592226e-07
3.9592226e-07
3.9592226e-07
3.9592226e-07
3.9592221e-07
3.9592224e-07
3.9592225e-07
3.9592225e-07
3.9592226e-07
3.9592226e-07
3.9592226e-07
3.9592226e-07
3.9592221e-07
3.9592224e-07
3.9592225e-07
3.9592225e-07
3.9592226e-07
3.9592226e-07
3.9592226e-07
3.9592226e-07
3.9592226e-07
3.9592226e-07
3.9592225e-07
3.9592225e-07
3.9592224e-07
3.9592221e-07
3.9592225e-07
3.9592225e-07
3.9592224e-07
3.959222e-07
3.959222e-07
4.1842354e-07
4.1060815e-07
4.1231344e-07
4.1197776e-07
3.9620376e-07
3.9599196e-07
3.960306e-07
3.9602358e-07
3.9587055e-07
3.9586865e-07
3.9586598e-07
3.9586406e-07
3.9591579e-07
3.9591604e-07
3.9591562e-07
3.9591534e-07
3.9592092e-07
3.9592091e-07
3.9592088e-07
3.9592085e-07
3.9592144e-07
3.9592148e-07
3.9592145e-07
3.9592145e-07
3.9592166e-07
3.9592169e-07
3.9592169e-07
3.9592168e-07
3.959218e-07
3.9592182e-07
3.9592183e-07
3.9592183e-07
3.959219e-07
3.9592191e-07
3.9592192e-07
3.9592192e-07
3.9592197e-07
3.9592198e-07
3.9592199e-07
3.9592199e-07
3.9592202e-07
3.9592203e-07
3.9592204e-07
3.9592204e-07
3.9592207e-07
3.9592207e-07
3.9592207e-07
3.9592208e-07
3.959221e-07
3.959221e-07
3.959221e-07
3.959221e-07
3.9592212e-07
3.9592212e-07
3.9592213e-07
3.9592213e-07
3.9592213e-07
3.9592213e-07
3.9592213e-07
3.9592213e-07
3.9592213e-07
3.9592213e-07
3.9592213e-07
3.9592211e-07
3.9592211e-07
3.9592211e-07
3.9592211e-07
3.9592211e-07
3.9592211e-07
3.9592208e-07
3.9592208e-07
3.9592208e-07
3.9592208e-07
3.9592208e-07
3.9592208e-07
3.9592204e-07
3.9592204e-07
3.9592204e-07
3.9592204e-07
3.9592204e-07
3.95922e-07
3.9592199e-07
3.9592199e-07
3.9592199e-07
3.9592199e-07
3.9592193e-07
3.9592193e-07
3.9592192e-07
3.9592192e-07
3.9592183e-07
3.9592183e-07
3.9592183e-07
3.9592183e-07
3.9592169e-07
3.9592169e-07
3.9592169e-07
3.9592146e-07
3.9592146e-07
3.9592145e-07
3.9592091e-07
3.9592091e-07
3.9591611e-07
3.9591623e-07
3.9587198e-07
)
;

boundaryField
{
    Side
    {
        type            empty;
    }
    Inlet
    {
        type            inletOutlet;
        inletValue      uniform 3.9592226e-07;
        value           nonuniform List<scalar> 
28
(
3.9592226e-07
3.9592226e-07
3.9592226e-07
3.9592226e-07
3.9592226e-07
3.9592226e-07
3.9592226e-07
3.9592226e-07
3.9592226e-07
3.9592226e-07
3.9592226e-07
3.9592226e-07
3.9592226e-07
3.9592226e-07
3.9592226e-07
3.9592226e-07
3.9592226e-07
3.9592226e-07
3.9592226e-07
3.9592226e-07
3.9592226e-07
3.9592226e-07
3.9592226e-07
3.9592226e-07
3.9592226e-07
3.9592226e-07
3.9592226e-07
3.9592226e-07
)
;
    }
    Airfoil
    {
        type            nutUSpaldingWallFunction;
        value           nonuniform List<scalar> 
60
(
4.4853147e-06
4.5537954e-06
4.6107102e-06
4.667216e-06
4.7226209e-06
4.7766927e-06
4.8285784e-06
4.8779703e-06
4.9268985e-06
4.9795754e-06
5.0367469e-06
5.0860046e-06
5.0993714e-06
5.0405011e-06
1.4570287e-05
1.4579902e-05
1.4591528e-05
1.4605247e-05
1.4619261e-05
1.4631122e-05
1.4640493e-05
1.4649379e-05
1.4667149e-05
1.469557e-05
1.4710506e-05
1.4670924e-05
1.4660803e-05
1.44112e-05
2.2374082e-06
2.0911091e-06
1.9714605e-06
1.9053151e-06
1.8661861e-06
1.866632e-06
1.9198424e-06
1.9876676e-06
2.0347206e-06
2.0597289e-06
2.0756832e-06
2.0940083e-06
2.118962e-06
2.1481171e-06
3.7295284e-06
3.4998621e-06
3.2240586e-06
3.0109015e-06
2.8642804e-06
2.7511884e-06
2.6526256e-06
2.5622424e-06
2.4793405e-06
2.4030912e-06
2.3351657e-06
2.2773935e-06
2.2285995e-06
2.1814929e-06
1.4379125e-05
1.4506921e-05
1.4472919e-05
1.4408779e-05
)
;
    }
    Outlet
    {
        type            zeroGradient;
    }
    Flap
    {
        type            nutUSpaldingWallFunction;
        value           nonuniform List<scalar> 
36
(
2.0272181e-06
1.973497e-06
1.9230756e-06
1.8750494e-06
1.8281586e-06
2.0714165e-06
2.0867061e-06
2.10787e-06
2.136797e-06
2.1781174e-06
2.2246091e-06
2.2663514e-06
2.3030145e-06
2.3401111e-06
2.3802807e-06
2.422689e-06
2.4677053e-06
2.516981e-06
2.5721295e-06
1.2343986e-06
1.8104315e-06
2.2666102e-06
2.7364612e-06
3.0014992e-06
3.1431407e-06
3.2102427e-06
3.2082197e-06
3.1537854e-06
3.0694975e-06
2.9644804e-06
2.8672626e-06
2.7644107e-06
2.6683254e-06
1.2249891e-05
1.2529848e-05
1.2382101e-05
)
;
    }
    procBoundary2to1
    {
        type            processor;
        value           nonuniform List<scalar> 
73
(
3.9592226e-07
3.9592226e-07
3.9592226e-07
3.9592226e-07
3.9592226e-07
3.9592226e-07
3.9592226e-07
3.9592226e-07
3.9592226e-07
3.9592226e-07
3.9592226e-07
3.9592225e-07
3.9592224e-07
3.9592221e-07
3.9602212e-07
4.1198722e-07
3.9592226e-07
3.9592226e-07
3.9592226e-07
3.9592226e-07
3.9592226e-07
3.9592226e-07
3.9592226e-07
3.9592226e-07
3.9592226e-07
3.9592226e-07
3.9592226e-07
3.9592226e-07
3.9592226e-07
3.9592226e-07
3.9592226e-07
3.9592226e-07
3.9592226e-07
3.9592225e-07
3.9592225e-07
3.9592224e-07
3.9592224e-07
3.9592221e-07
3.9592221e-07
3.9592213e-07
4.1224934e-07
3.9603692e-07
3.9586166e-07
3.9591496e-07
3.9592081e-07
3.9592143e-07
3.9592167e-07
3.9592182e-07
3.9592191e-07
3.9592198e-07
3.9592203e-07
3.9592207e-07
3.959221e-07
3.9592213e-07
3.9592213e-07
3.9592211e-07
3.9592211e-07
3.9592208e-07
3.9592204e-07
3.9592204e-07
3.9592199e-07
3.9592192e-07
3.9592192e-07
3.9592183e-07
3.9592168e-07
3.9592168e-07
3.9592145e-07
3.9592091e-07
3.9592091e-07
3.9591632e-07
3.9587273e-07
3.9587273e-07
3.9602212e-07
)
;
    }
    procBoundary2to3
    {
        type            processor;
        value           nonuniform List<scalar> 
113
(
3.9592226e-07
3.9592226e-07
3.9636414e-07
3.9491682e-07
3.9761724e-07
3.9424055e-07
3.9685841e-07
3.9671177e-07
3.9948081e-07
3.9949833e-07
4.0173655e-07
4.024547e-07
4.0422482e-07
4.0510711e-07
4.0633933e-07
4.0693547e-07
4.0693547e-07
3.9924078e-07
3.9592679e-07
3.9590368e-07
3.9590368e-07
3.9491682e-07
3.9985876e-07
3.9490264e-07
3.9686044e-07
3.9610429e-07
3.9578664e-07
3.9516978e-07
3.9461897e-07
3.9447862e-07
3.9478027e-07
3.9532405e-07
3.9592062e-07
3.9649057e-07
3.976739e-07
3.976739e-07
4.1963902e-07
3.9592213e-07
3.9592221e-07
3.9592211e-07
3.9592211e-07
3.9592208e-07
3.9592208e-07
3.9592205e-07
3.9592205e-07
3.95922e-07
3.9592193e-07
3.9592193e-07
3.9592184e-07
3.9592184e-07
3.959217e-07
3.959217e-07
3.9592147e-07
3.9592147e-07
3.9592091e-07
3.9592091e-07
3.95916e-07
3.95916e-07
3.9588269e-07
3.9588269e-07
3.9592226e-07
3.9592226e-07
3.9592226e-07
3.9592226e-07
3.9592226e-07
3.9592226e-07
3.9592226e-07
3.9592226e-07
3.9592226e-07
3.9592226e-07
3.9592226e-07
3.9592225e-07
3.9592224e-07
3.9592224e-07
3.9592221e-07
4.1488971e-07
3.956961e-07
3.9597075e-07
3.9592027e-07
3.9592064e-07
3.9592116e-07
3.9592146e-07
3.9592166e-07
3.9592179e-07
3.9592188e-07
3.9592195e-07
3.95922e-07
3.9592204e-07
3.9592207e-07
3.9592226e-07
3.9592226e-07
3.9592226e-07
3.9592226e-07
3.9592226e-07
3.9592226e-07
3.9592226e-07
3.9592226e-07
3.9592226e-07
3.9592226e-07
3.9592226e-07
3.9592226e-07
3.9592226e-07
3.9592226e-07
3.9592226e-07
3.9592226e-07
3.9592226e-07
3.9592226e-07
3.9592226e-07
3.9592225e-07
3.9592225e-07
3.9592224e-07
3.9592224e-07
3.959222e-07
)
;
    }
}


// ************************************************************************* //
