/*--------------------------------*- C++ -*----------------------------------*\
| =========                 |                                                 |
| \\      /  F ield         | OpenFOAM: The Open Source CFD Toolbox           |
|  \\    /   O peration     | Version:  2206                                  |
|   \\  /    A nd           | Website:  www.openfoam.com                      |
|    \\/     M anipulation  |                                                 |
\*---------------------------------------------------------------------------*/
FoamFile
{
    version     2.0;
    format      ascii;
    arch        "LSB;label=32;scalar=64";
    class       volScalarField;
    location    "0.01";
    object      p;
}
// * * * * * * * * * * * * * * * * * * * * * * * * * * * * * * * * * * * * * //

dimensions      [1 -1 -2 0 0 0 0];

internalField   nonuniform List<scalar> 
1396
(
1
1
1
1
1
1
1
1
1
1
1
1
1
1
1
1
1
1
1
1
1
1
1
1
1
1
1
1
1
1
1
1
1
1
1
1
1
1
1
1
1
1
1
1
1
1
1
1
1
1
1
1
1
1
1
1
1
1
1
1
1
1
1
1
1
1
1
1
1
1
1
1
1
1
1
1
1
1
1
1
1
1
1
1
1
1
1
1
1
1
1
1
1
1
1
1
1
1
0.5321508
0.8519704
0.96754807
0.53336974
0.85399909
0.96854092
0.53425623
0.85592932
0.96945836
0.53510998
0.85787556
0.97054325
0.53588027
0.85962911
0.9716981
0.53662454
0.86123407
0.97296576
0.5374634
0.86269529
0.97435248
0.53840502
0.86403372
0.97580913
0.53907335
0.86521672
0.97730534
0.53873638
0.86612422
0.97889013
0.53731353
0.86672374
0.98064163
0.5371074
0.86731668
0.98267848
0.54325439
0.86833703
0.98461073
0.56001102
0.8698189
0.98553566
0.9971106
0.9893045
0.95059421
0.86767187
0.98873519
1.092003
1.1347232
1.120546
1.0650353
1.0261699
1.0038601
0.99155422
0.98293245
0.97627278
0.9703762
0.96860097
0.95978414
0.87908715
0.9426411
1.0271088
1.0632315
1.0661617
1.0382994
1.0133881
0.99476524
0.98040984
0.96916193
0.96095211
0.95433931
0.95508183
0.94942812
0.98279734
0.99490088
1.0142708
1.0238444
1.0248581
1.0131112
0.99871566
0.98292759
0.96733498
0.95434939
0.9456725
0.93907404
0.9425872
0.93956722
1.0008475
1.0078296
1.0094417
1.0080162
1.0051322
0.99795453
0.98648262
0.97045798
0.95314523
0.93874862
0.93038899
0.92433255
0.93068159
0.92924771
0.91851284
1
1
1
1
1
1
1
1
0.99999995
0.99999802
0.999925
0.99894588
0.98923481
0.87089019
1
1
1
1
1
1
1
1
0.99999995
0.99999796
0.99992319
0.99892751
0.98905027
0.86953129
1
1
1
1
1
1
1
1
0.99999995
0.99999791
0.99992185
0.99891322
0.9888881
0.86827924
1
1
1
1
1
1
1
1
0.99999994
0.99999788
0.99992061
0.99889982
0.98873424
0.86705868
1
1
1
1
1
1
0.99999994
0.99999784
0.99991946
0.99888782
0.98859482
0.86592403
1
1
1
1
1
0.99999994
0.99999781
0.99991857
0.9988797
0.98849147
0.86504885
1
1
1
1
0.99999994
0.9999978
0.99991808
0.99887688
0.98843142
0.86451419
1
1
0.99999994
0.9999978
0.99991802
0.998878
0.98840346
0.86428331
1
0.99999994
0.99999779
0.99991787
0.99887417
0.9883369
0.86380091
0.99999994
0.99999776
0.99991684
0.99885774
0.98819033
0.8625939
0.99999772
0.99991548
0.99885059
0.98807493
0.86153887
0.99991749
0.99888695
0.98834281
0.86321246
0.99894023
0.98871138
0.86942523
0.98933564
0.85604037
1
1
1
1
1
1
1
1
1
1
1
1
1
1
1
1
0.96956025
0.97927439
0.99131974
1.0007994
1.0060029
1.0109272
1.0178849
1.0263033
1.0352023
1.0445075
1.0553534
1.0675047
1.0784822
1.0909942
0.98134482
0.99169114
1.0026492
1.0130205
1.0227779
1.0333547
1.0459203
1.0606688
1.0773895
1.0959844
1.1166824
1.1396921
1.1653372
1.1950126
0.98473137
0.9963225
1.0074301
1.0179195
1.0285387
1.0402736
1.0536339
1.068626
1.0851034
1.1031084
1.1228222
1.1445555
1.1687584
1.1951603
0.98940885
0.99972236
1.0092951
1.0181673
1.0269143
1.0360366
1.045786
1.0561833
1.0671634
1.0787006
1.0906544
1.1027006
1.114348
1.1248697
0.99365461
1.0014616
1.0082626
1.0142844
1.019901
1.0252912
1.0306057
1.0359618
1.0413167
1.0465638
1.0515814
1.0562809
1.0605715
1.0639899
0.99886036
1.0029951
1.0064918
1.0093765
1.0118667
1.0140492
1.0160279
1.0179132
1.0196416
1.0211009
1.0222188
1.0229955
1.0234553
1.0234533
1.008454
1.0086554
1.0091401
1.00928
1.009368
1.0094986
1.0096396
1.0097659
1.0098365
1.0098107
1.0096863
1.0094778
1.0091798
1.0087216
1.0322384
1.0282939
1.0254189
1.0222553
1.0194258
1.0173328
1.0157023
1.0142295
1.0128471
1.0114895
1.0101261
1.0087828
1.0074797
1.0062331
1.0774377
1.0728871
1.0674174
1.0598951
1.0520215
1.0452544
1.0397978
1.0353529
1.0315585
1.0279687
1.0243969
1.0208685
1.0175
1.0144258
1.1556852
1.1663289
1.1620623
1.1481099
1.1292952
1.1119052
1.0976749
1.0862753
1.076767
1.0680613
1.0595327
1.0510558
1.042799
1.0351789
1.1848234
1.2086901
1.2187076
1.2155953
1.199998
1.1760023
1.1510448
1.1317473
1.1182591
1.1073722
1.0964987
1.0848121
1.0726775
1.061101
1.1653576
1.2287884
1.2684382
1.2838096
1.2790755
1.2522176
1.2175564
1.1910728
1.1733652
1.1595793
1.1455493
1.1295623
1.1118615
1.0939318
1.0934787
1.1588256
1.203273
1.2295194
1.2406251
1.2288863
1.2007967
1.174228
1.1558898
1.1442116
1.1344632
1.1230751
1.1091709
1.0939864
0.97090439
1.0749319
1.1328631
1.1721147
1.1935386
1.1904302
1.1627592
1.1341027
1.117211
1.1094926
1.104526
1.0979341
1.0886417
1.0778048
2.4543486
0.8095649
1.2509255
0.98727195
1.0029285
0.9998509
0.99984141
0.99884361
0.99380365
0.9764241
0.93886475
0.88995879
0.85126052
0.78065448
2.0475898
0.92446874
1.2772298
0.99323354
1.0042223
0.99988462
0.99977126
0.99852783
0.99252653
0.97251103
0.93030878
0.87341298
0.8393139
0.76717788
1.9626806
0.95929896
1.2833059
0.99959492
1.0056345
0.99994967
0.99968217
0.99810365
0.99110317
0.96967789
0.92726252
0.87095677
0.84808494
0.78048456
1.876022
1.0487017
1.2855665
1.0101168
1.0070186
1.0000849
0.99959483
0.99770867
0.990002
0.96841736
0.92826693
0.87339162
0.85924377
0.80297983
1.7930143
1.1588346
1.2889768
1.0233488
1.0089264
1.0002973
0.99952351
0.99738659
0.98925064
0.96818273
0.93154719
0.87825911
0.872501
0.82823383
1.6916097
1.2778345
1.2893405
1.0373287
1.0121119
1.0007002
0.99948433
0.99718408
0.98893992
0.96891312
0.93652627
0.88594121
0.88702352
0.85557003
1.5787844
1.3661746
1.3121256
1.0525318
1.0175393
1.0015456
0.9995273
0.99716925
0.98926086
0.97098252
0.9434641
0.89678738
0.90283327
0.88405342
1.4697884
1.4336326
1.3308626
1.0702749
1.0254357
1.0030979
0.99975253
0.99740593
0.99035127
0.97469749
0.95262433
0.91111877
0.92076014
0.91272022
1.3733967
1.4635431
1.3391711
1.0940175
1.0350767
1.0055211
1.0002803
0.99791739
0.99223821
0.97998111
0.9639266
0.92960218
0.94145935
0.94090457
1.2983939
1.4510461
1.3370436
1.1156852
1.0454927
1.0086883
1.0011417
0.99870505
0.99485294
0.98671751
0.97752288
0.95239015
0.96500258
0.9678377
1.2332666
1.4088517
1.3255696
1.1292177
1.0566935
1.0125484
1.0024523
0.99977474
0.99814211
0.99499254
0.99332204
0.97904123
0.99012927
0.99402669
1.1825548
1.3538249
1.3022899
1.137178
1.063659
1.0166186
1.0042051
1.001148
1.001977
1.0042945
1.010399
1.0084645
1.0164657
1.0180935
1.1402609
1.2933074
1.2685497
1.1396946
1.0662229
1.0199738
1.0065526
1.0030077
1.0062562
1.0145918
1.0282348
1.0385973
1.0433301
1.0398158
1.1118296
1.2365348
1.228874
1.1351411
1.0664248
1.022656
1.0078284
1.0046753
1.0107266
1.0257555
1.0462965
1.0690174
1.0709632
1.0601227
1.0895085
1.1353559
0.99781417
1.0073205
0.99972507
1.0000646
1.0000346
1.0000976
1.0001314
0.99940033
0.99326278
0.97557576
0.94625976
0.91321144
1.0196329
1.0018158
1.0023701
0.99990717
1.0000628
0.99999565
0.99999366
0.99996789
0.99989603
0.99973884
0.99938269
0.99856077
0.99678257
0.99353148
1.000199
1.0002734
1.0000004
1.0000187
0.99999879
1.0000004
1.0000002
1.0000003
0.99999929
0.99999096
0.99995569
0.9998573
0.99965107
0.99928625
0.99999937
1.0000011
1.0000017
0.99999985
1.0000001
0.99999999
0.99999999
0.99999997
0.99999988
0.99999963
0.99999895
0.99999645
0.99998782
0.99996537
1.0000001
0.99999999
1
1
1
1
1
1
1
0.99999998
0.99999993
0.99999982
0.99999959
0.99999911
1
1
1
1
1
1
1
1
1
1
1
0.99999999
0.99999998
0.99999997
1
1
1
1
1
1
1
1
1
1
1
1
1
1
1
1
1
1
1
1
1
1
1
1
1
1
1
1
1
1
1
1
1
1
1
1
1
1
1
1
1
1
1
1
1
1
1
1
1
1
1
1
1
1
1
1
1
1
1
1
1
1
1
1
1
1
1
1
1
1
1
1
1
1
1
1
1
1
1
1
1
1
1
1
1
1
1
1
1
1
1
1
1
1
1
1
1
1
1
1
1
1
1
1
1
1
1
1
1
1
1
1
1.1160001
1.0040206
1.0008653
1.0000086
1.0000001
1
1
1
1
1
1
1
1
1
1.1101662
1.0041136
1.0008232
1.0000093
1.0000001
1
1
1
1
1
1
1
1
1
1.1058383
1.0080634
1.0004758
1.0000081
1
1
1
1
1
1
1
1
1
1
1
1
1
1
1
1
1
1
1
1
1
1
1
1
1
1
1
1
1
1
1
1
1
1
1
1
1
1
1
1
1
1
1
1
1
1
1
1
1
1
1
1
1
1
1
1
1
1
1
1
1
1
1
1
1
1
1
1
1
1
1
1
1
1
1
1
1
1
1
1
1
1
1
1
1
1
1
1
1
1
1
1
1
1
1
1
1
1
1
1
1
1
1
1
1
1
1
1
1
1
1
1
1
1
1
1
1
1
1
1
1
1
1
1
1
1
1
1
1
1
1
1
1
1
1
1
1
1
1
1
1
1
1
1
1
1
1
1
1
1
1
1
1
1
1
1
1
1
1
1
1
1
1
1
1
1
1
1
1
1
1
1
1
1
1
1
1
1
1
1
1
1
1
1
1
1
1
1
1
1
1
1
1
1
1
1
1
1
1
1
1
1
1
1
1
1
1
1
1
1
1
1
1
1
1
1
1
1
1
1
1
1
1
1
1
1
1
1
1
1
1
1
1
1
1
1
1
1
1
1
1
1
1
1
1
1
1
1
1
1
1
1
1
1
1
1
1
1
1
1
1
1
1
1
1
1
1
1
1
1
1
1
1
1
1
1
1
1
1
1
1
1
1
1
1
1
1
1
1
1
1
1
1
1
1
1
1
1
1
1
1
1
1
1
1
1
1
1
1
1
1
1
1
1
1
1
1
1
1
1
1
1
1
1
1
1
1
1
1
1
1
1
0.88413397
0.87335523
0.86791158
0.86497043
0.98909021
0.98955709
0.98913682
0.98875536
0.99876352
0.99883734
0.99877723
0.99872334
0.99992499
0.99992664
0.9999208
0.99991591
0.99999791
0.99999805
0.99999787
0.99999771
0.99999994
0.99999994
0.99999994
0.99999993
1
1
1
1
1
1
1
1
1
1
1
1
1
1
1
1
1
1
1
1
1
1
1
1
1
1
1
1
1
1
1
1
1
1
1
1
1
1
1
1
1
1
1
1
1
1
1
1
1
1
1
1
1
1
1
1
1
1
1
1
1
1
1
1
1
1
1
1
1
1
1
1
0.99999995
0.99999996
0.99999996
0.99999815
0.9999982
0.99992829
0.99993006
0.99897273
)
;

boundaryField
{
    Side
    {
        type            empty;
    }
    Inlet
    {
        type            inletOutlet;
        inletValue      uniform 1;
        value           nonuniform List<scalar> 
28
(
1
1
1
1
1
1
1
1
1
1
1
1
1
1
1
1
1
1
1
1
1
1
1
1
1
1
1
1
)
;
    }
    Airfoil
    {
        type            zeroGradient;
    }
    Outlet
    {
        type            zeroGradient;
    }
    Flap
    {
        type            zeroGradient;
    }
    procBoundary2to1
    {
        type            processor;
        value           nonuniform List<scalar> 
73
(
1
1
1
1
1
1
1
1
1
1
1
1
1
1
0.9894414
0.87251593
1
1
1
1
1
1
1
1
1
1
1
1
1
1
1
1
1
1
1
1
1
1
1
1
0.86202904
0.98833346
0.99866383
0.99991043
0.99999753
0.99999993
1
1
1
1
1
1
1
1
1
1
1
1
1
1
1
1
1
1
1
1
0.99999996
0.99999827
0.99999827
0.99993232
0.99899139
0.99899139
0.9894414
)
;
    }
    procBoundary2to3
    {
        type            processor;
        value           nonuniform List<scalar> 
113
(
1
1
0.99180388
0.99610822
0.99211398
0.99241958
0.9927648
0.99311647
0.99347224
0.9938253
0.9941769
0.99454933
0.99494544
0.99539126
0.99589481
0.99646428
0.99646428
0.99493838
0.99633455
0.99360619
0.99360619
0.99610822
0.99604532
0.99908644
1.0007273
0.99988901
0.99684034
0.98953726
0.97622114
0.95770927
0.93844438
0.92286223
0.91546699
0.91039077
0.91898746
0.91898746
0.90833171
1
1
1
1
1
1
1
1
1
1
1
1
1
1
1
0.99999994
0.99999994
0.9999978
0.9999978
0.99992594
0.99992594
0.99902767
0.99902767
1
1
1
1
1
1
1
1
1
1
1
1
1
1
1
1.1235617
1.0044446
1.0009753
1.0000099
1.0000002
1
1
1
1
1
1
1
1
1
1
1
1
1
1
1
1
1
1
1
1
1
1
1
1
1
1
1
1
1
1
1
1
1
)
;
    }
}


// ************************************************************************* //
