/*--------------------------------*- C++ -*----------------------------------*\
| =========                 |                                                 |
| \\      /  F ield         | OpenFOAM: The Open Source CFD Toolbox           |
|  \\    /   O peration     | Version:  2206                                  |
|   \\  /    A nd           | Website:  www.openfoam.com                      |
|    \\/     M anipulation  |                                                 |
\*---------------------------------------------------------------------------*/
FoamFile
{
    version     2.0;
    format      ascii;
    arch        "LSB;label=32;scalar=64";
    class       surfaceScalarField;
    location    "0.01";
    object      phi;
}
// * * * * * * * * * * * * * * * * * * * * * * * * * * * * * * * * * * * * * //

dimensions      [1 0 -1 0 0 0 0];

oriented        oriented;

internalField   nonuniform List<scalar> 
2637
(
-0.00086154189
0.2853392
-0.0010363824
0.2853392
-0.0012112221
0.2853392
-0.0013860634
0.2853392
-0.0015609031
0.2853392
-0.0017357436
0.2853392
-0.0019105833
0.2853392
-0.0020854238
0.2853392
-0.0022602634
0.2853392
-0.0024351039
0.2853392
-0.0026099444
0.2853392
-0.002784785
0.2853392
-0.0029596249
0.2853392
0.2853392
-0.003134465
-0.00086154275
0.28551404
-0.0010363824
0.28551404
-0.0012112229
0.28551404
-0.0013860626
0.28551404
-0.0015609039
0.28551404
-0.0017357436
0.28551404
-0.0019105841
0.28551404
-0.0020854238
0.28551404
-0.0022602643
0.28551404
-0.0024351039
0.28551404
-0.0026099444
0.28551404
-0.0027847841
0.28551404
-0.0029596248
0.28551404
0.28551404
-0.003134465
-0.00086154275
0.28568888
-0.0010363833
0.28568888
-0.0012112229
0.28568888
-0.0013860634
0.28568888
-0.0015609031
0.28568888
-0.0017357436
0.28568888
-0.0019105833
0.28568888
-0.0020854238
0.28568888
-0.0022602643
0.28568888
-0.0024351048
0.28568888
-0.0026099444
0.28568888
-0.002784785
0.28568888
-0.0029596248
0.28568888
0.28568888
-0.003134465
-0.00086154189
0.28586372
-0.0010363824
0.28586372
-0.0012112229
0.28586372
-0.0013860634
0.28586372
-0.0015609031
0.28586372
-0.0017357427
0.28586372
-0.0019105841
0.28586372
-0.0020854238
0.28586372
-0.0022602634
0.28586372
-0.0024351039
0.28586372
-0.0026099444
0.28586372
-0.0027847846
0.28586372
-0.0029596248
0.28586372
0.28586372
-0.003134465
-0.00086154275
0.28603856
-0.0010363824
0.28603856
-0.0012112229
0.28603856
-0.0013860626
0.28603856
-0.0015609031
0.28603856
-0.0017357436
0.28603856
-0.0019105833
0.28603856
-0.0020854238
0.28603856
-0.0022602643
0.28603856
-0.0024351039
0.28603856
-0.0026099444
0.28603856
-0.0027847845
0.28603856
-0.0029596249
0.28603856
0.28603856
-0.003134465
-0.00086154275
0.2862134
-0.0010363824
0.2862134
-0.0012112229
0.2862134
-0.0013860634
0.2862134
-0.0015609031
0.2862134
-0.0017357436
0.2862134
-0.0019105841
0.2862134
-0.0020854238
0.2862134
-0.0022602643
0.2862134
-0.0024351048
0.2862134
-0.0026099444
0.2862134
-0.0027847846
0.2862134
-0.0029596248
0.2862134
0.2862134
-0.003134465
-0.00086154189
-0.0010363833
-0.0012112229
0.28638824
-0.0013860626
0.28638824
-0.0015609031
0.28638824
-0.0017357436
0.28638824
-0.0019105833
0.28638824
-0.0020854238
0.28638824
-0.0022602643
0.28638824
-0.0024351039
0.28638824
-0.0026099444
0.28638824
-0.0027847846
0.28638824
-0.0029596248
0.28638824
0.28638824
-0.003134465
4.0902598e-05
-0.00078875872
0.00075854005
8.2991037e-05
-0.0010844238
0.0010538005
-0.00088578617
4.20893e-05
-0.00081688888
8.5605903e-05
-0.0011161821
-0.00091874881
4.3029617e-05
-0.00084706761
8.7293681e-05
-0.0011490716
-0.00095204128
4.4029818e-05
-0.00087827837
8.9145935e-05
-0.0011829028
-0.0009850404
4.4996567e-05
-0.00091049028
9.0768405e-05
-0.0012172743
-0.001016801
4.5955932e-05
-0.00094375978
9.2275664e-05
-0.0012522577
-0.0010476213
4.6910925e-05
-0.00097817054
9.3678909e-05
-0.0012876919
-0.0010776631
4.7868733e-05
-0.00101353
9.5010367e-05
-0.0013235488
-0.001107368
4.8819876e-05
-0.0010495129
9.6282907e-05
-0.0013598851
-0.0011365443
4.9773372e-05
-0.0010861161
9.7481644e-05
-0.0013965698
-0.0011643766
5.0710842e-05
-0.0011236523
9.8582293e-05
-0.0014335755
-0.0011913582
5.166655e-05
-0.0011621756
9.9581241e-05
-0.0014708746
-0.0012172243
5.2686572e-05
-0.0012026985
0.00010046034
-0.001508374
-0.0012419006
5.3802878e-05
-0.001246696
0.00010109481
-0.0015455683
0.00012940946
-0.0012656031
-0.0010362557
-0.014778213
-0.014320913
-0.0011136491
0.001725326
-0.0018919439
-0.00072531899
0.0016815909
-0.0019295403
-0.00043191796
0.0017870508
-0.0019514823
-0.00031790027
0.0017598182
-0.0018794137
-0.00035571697
0.0017037333
-0.0018066788
-0.00042566327
0.0016210501
-0.0016964609
-0.00044541408
0.0015737457
-0.0016386644
-0.00041306774
0.0015506391
-0.0016112279
-0.00035136086
0.001541799
-0.0016036085
-0.00028040588
0.0015401125
-0.0016046969
-0.00020943709
0.0015435272
-0.0016105162
-0.00013915312
0.0015498935
-0.0016186595
-7.0498057e-05
0.0015601937
-0.001628416
0.0015462845
-0.0016130527
-0.0012261613
0.0015753355
-0.00093188206
0.0015553626
-0.00067840127
0.0016087519
-0.00052048395
0.0015939509
-0.00048389311
0.0015771498
-0.00048686545
0.0015357629
-0.00046733563
0.0015073569
-0.00041245785
0.0014902566
-0.00033788268
0.0014808082
-0.00026236008
0.001477089
-0.00019270274
0.0014790306
-0.00012901782
0.0014840695
-6.7386914e-05
0.0014960567
0.0014834489
-0.0010646724
0.0014571845
-0.00091114563
0.0014748234
-0.00076471764
0.0014955925
-0.00065699219
0.001482716
-0.00059004854
0.001474574
-0.0005434944
0.0014576399
-0.00048436734
0.0014434891
-0.00040531613
0.0014310049
-0.00032056489
0.0014213156
-0.00024242959
0.0014160985
-0.00017644965
0.0014173079
-0.00012177178
0.0014213173
-6.688752e-05
0.0014351286
0.00142281
-0.00094604941
-0.00085764621
-0.00077511629
-0.00070665632
-0.00064053677
-0.00057032313
-0.00048578758
-0.00039087907
-0.00029940666
-0.00022068156
-0.00016027535
-0.00011646041
-6.8120316e-05
0.001364456
-0.0029989507
0.016165692
0.0030408238
-0.016207565
-0.0029570776
0.016165692
-0.016207565
-0.0029152045
0.016165692
-0.016207565
-0.0028733313
0.016165692
-0.016207565
-0.0028314582
0.016165692
-0.016207565
-0.0027895851
0.016165692
-0.016207565
-0.002747712
0.016165692
-0.016207565
-0.0027058388
0.016165692
-0.016207565
-0.0026639595
0.016165692
-0.016207565
-0.0026218969
0.016165693
-0.016207567
-0.0025739073
0.016165206
-0.016207096
-0.0024598798
0.016162261
-0.016204056
-0.0021279181
0.016155967
0.014711619
-0.0030008269
0.016125695
0.0030408237
-0.0029608301
0.016125695
-0.0029208332
0.016125695
-0.0028808363
0.016125695
-0.0028408394
0.016125695
-0.0028008426
0.016125695
-0.0027608457
0.016125695
-0.0027208486
0.016125695
-0.0026808452
0.016125695
-0.002640654
0.016125697
-0.0025944159
0.016125207
-0.0024813382
0.016122471
-0.0021475038
0.016117772
0.01466173
-0.0030026731
0.016087544
0.0030408238
-0.0029645225
0.016087544
-0.0029263718
0.016087544
-0.0028882211
0.016087544
-0.0028500705
0.016087545
-0.0028119198
0.016087544
-0.0027737691
0.016087544
-0.0027356183
0.016087544
-0.0026974611
0.016087544
-0.0026591125
0.016087547
-0.0026146177
0.016087059
-0.0025025477
0.016084559
-0.0021668995
0.016081698
0.014614968
-0.0030045714
-0.0029683191
-0.0029320667
0.016051292
-0.0028958144
0.016051292
-0.0028595619
0.016051292
-0.0028233096
0.016051292
-0.0027870572
0.016051292
-0.0027508047
0.016051292
-0.0027145457
0.016051292
-0.0026780919
0.016051295
-0.0026353971
0.016050809
-0.0025244267
0.016048567
-0.0021869844
0.01604756
0.014569991
-0.0029373418
-0.0029028479
0.016016798
-0.0028683539
0.016016798
-0.00283386
0.016016798
-0.0027993659
0.016016798
-0.0027648718
0.016016798
-0.002730371
0.016016798
-0.0026956725
0.016016802
-0.0026546433
0.016016318
-0.002544709
0.016014382
-0.0022057035
0.016015239
0.014527143
-0.0029078149
-0.0028745628
0.015983546
-0.0028413105
0.015983546
-0.0028080584
0.015983546
-0.002774806
0.015983546
-0.0027415469
0.015983546
-0.0027080878
0.015983551
-0.0026682293
0.015983071
-0.0025590074
0.015981497
-0.0022189857
0.015984428
0.014488562
-0.002877933
-0.0028453549
-0.0028127767
0.015950968
-0.0027801983
0.015950968
-0.0027476133
0.015950968
-0.0027148272
0.015950973
-0.0026756026
0.015950502
-0.0025667676
0.015949292
-0.0022263328
0.015954728
0.014455058
-0.0028141084
-0.0027817203
0.01591858
-0.0027493255
0.01591858
-0.0027167297
0.015918586
-0.0026776898
0.015918126
-0.002568952
0.015917184
-0.0022283307
0.015925751
0.014427677
-0.0027902127
-0.0027588793
0.015887254
-0.0027273445
0.015887261
-0.0026893482
0.015886812
-0.0025814089
0.015886016
-0.0022396309
0.015897502
0.014399206
-0.0027834675
-0.0027546616
0.015858667
-0.0027193048
0.015858221
-0.0026133884
0.015857757
-0.0022693621
0.015870618
0.014359328
-0.0027747475
-0.0027412898
0.015831634
-0.0026369229
0.015831826
-0.0022926343
0.015845697
0.014312875
-0.0026838963
-0.0025756166
0.015800192
-0.0022375902
0.015818071
0.014321878
-0.0024994542
-0.0021560409
0.015783345
0.014094109
-0.0024431013
-0.0038153405
-0.0037449302
-0.0036745199
-0.0036041088
-0.0035336976
-0.0034632873
-0.0033928762
-0.0033224659
-0.0032520556
-0.003181645
0.28631783
-0.0031112344
0.28631783
0.28631783
-0.003181645
-0.0031112345
0.28624742
-0.0016380073
2.6135897e-05
-0.001678865
4.2667011e-05
-0.001720365
4.3580669e-05
-0.0017623236
4.3435999e-05
-0.0018144694
5.4211331e-05
-0.0018696547
5.7565851e-05
-0.0019208984
5.4210284e-05
-0.0019712081
5.5100792e-05
-0.0020249126
6.1646507e-05
-0.0020858055
7.3292401e-05
-0.0021531107
8.5682949e-05
-0.0022212517
9.47316e-05
-0.0023005514
0.00011695938
0.00014736328
-0.0023970907
-0.0016495804
4.8252885e-05
-0.0016879986
8.2620548e-05
-0.0017342792
9.1840611e-05
-0.0017852965
9.6556795e-05
-0.0018417161
0.00011290698
-0.001899171
0.00011764214
-0.0019550496
0.00011340735
-0.0020136297
0.0001181683
-0.0020780994
0.00013205086
-0.0021496773
0.00015214864
-0.0022286825
0.00017283163
-0.0023155591
0.00018982285
-0.002412121
0.00022014527
0.0002568708
-0.0025184014
-0.0016417275
7.2624803e-05
-0.0016807803
0.00012288917
-0.0017287612
0.00014035631
-0.0017821476
0.00014936058
-0.0018394252
0.00016827763
-0.001896303
0.00017068713
-0.0019508736
0.00016127689
-0.0020073635
0.00016385413
-0.0020684593
0.00017676101
-0.0021345153
0.00019469879
-0.0022053558
0.00021122738
-0.0022813635
0.00022216161
-0.0023609907
0.0002412371
0.000258812
-0.0024423119
-0.0016319515
9.4461719e-05
-0.0016697187
0.00015855276
-0.0017155293
0.00018070071
-0.0017652471
0.00018930449
-0.0018169385
0.000204908
-0.001866417
0.000198351
-0.0019120707
0.00017651896
-0.0019578847
0.00016878022
-0.0020059702
0.00017174386
-0.0020561644
0.00017779182
-0.0021078153
0.00017987295
-0.0021600695
0.00017395602
-0.0022095462
0.00017194163
0.00016640041
-0.0022552815
-0.0016240722
0.00011332033
-0.0016595507
0.00018883785
-0.0017024348
0.00021313445
-0.001747969
0.0002186254
-0.0017940763
0.00022841166
-0.0018367027
0.00021113685
-0.0018742858
0.00017615517
-0.001910553
0.00015835438
-0.0019473244
0.000152496
-0.0019843163
0.00014895011
-0.0020208049
0.00014055947
-0.0020562732
0.00012350842
-0.0020889715
0.00010896388
9.1336785e-05
-0.0021181707
-0.0016200087
0.00012288538
-0.0016525513
0.00021085358
-0.0016921328
0.000237936
-0.0017337125
0.00024141899
-0.0017752858
0.00024711343
-0.0018128724
0.00022154623
-0.0018447905
0.00017644059
-0.0018746448
0.00015214516
-0.0019043061
0.00014175037
-0.0019336986
0.00013377692
-0.0019623978
0.0001208917
-0.0019902368
9.9627421e-05
-0.0020159792
8.0215261e-05
5.8788415e-05
-0.0020396545
-0.0016235159
0.00010781402
-0.0016527719
0.00021310245
-0.0016891697
0.00024694081
-0.0017277008
0.00025261985
-0.0017665689
0.00025858549
-0.0018015274
0.00022861156
-0.0018305913
0.00017694458
-0.0018574221
0.00014988345
-0.0018840468
0.00013884335
-0.001910553
0.00013047141
-0.0019366515
0.00011712135
-0.0019621877
9.5433018e-05
-0.0019861278
7.4774477e-05
5.2571975e-05
-0.0020084924
-0.0016435137
3.8220748e-05
-0.0016678668
0.00016736466
-0.0016998659
0.00021383229
-0.0017346718
0.00022868568
-0.0017711418
0.00024226465
-0.0018042453
0.00021344348
-0.0018312089
0.00015926671
-0.0018558218
0.00013329209
-0.0018803268
0.0001254008
-0.0019049386
0.00012036958
-0.001929443
0.00011017028
-0.0019536846
9.152992e-05
-0.0019767142
7.2975484e-05
5.2893528e-05
-0.0019986586
-0.0016913431
-8.17529e-05
-0.0017071493
5.9804448e-05
-0.0017314805
0.00011675641
-0.0017598243
0.00014406887
-0.0017922062
0.0001729344
-0.0018224853
0.00015338948
-0.0018466029
0.00010308746
-0.0018683169
8.2913065e-05
-0.001890001
8.1788689e-05
-0.0019120306
8.3402638e-05
-0.0019343193
7.98086e-05
-0.0019567958
6.7802111e-05
-0.001978497
5.48321e-05
4.0045182e-05
-0.0019995045
-0.0017944643
-0.00021671453
-0.0017990816
-9.0101604e-05
-0.0018102414
-5.0436768e-05
-0.0018246413
-2.6396593e-05
-0.0018482558
2.1748977e-05
-0.0018726844
2.2627639e-05
-0.0018910982
-1.4211929e-05
-0.00190667
-1.9869924e-05
-0.00192195
-1.1326186e-05
-0.001937803
-1.3205814e-06
-0.0019545484
8.654275e-06
-0.0019722027
8.6228629e-06
-0.0019898342
6.6429225e-06
2.1209688e-06
-0.0020074832
-0.0018541589
-0.0002533423
-0.0018536649
-0.00015767901
-0.0018550983
-0.00013886451
-0.0018613953
-0.00012627047
-0.0018759435
-7.9369251e-05
-0.0018933897
-7.4217065e-05
-0.0019088975
-0.0001023022
-0.0019226271
-9.9435524e-05
-0.00193535
-8.1464206e-05
-0.0019479264
-6.3488432e-05
-0.0019616169
-5.0211251e-05
-0.0019773036
-4.3427041e-05
-0.0019939592
-3.8088674e-05
-3.4065438e-05
-0.0020116577
-0.0019496991
-0.00011668672
-0.0019377019
-4.4242044e-05
-0.0019303508
-4.4804322e-05
-0.0019257975
-6.0198941e-05
-0.0019316517
-3.8713393e-05
-0.0019456679
-4.8394247e-05
-0.0019624883
-8.0397552e-05
-0.0019758911
-8.1055092e-05
-0.0019840465
-6.8611579e-05
-0.0019892865
-5.7608735e-05
-0.0019951061
-5.0833056e-05
-0.0020029613
-4.8630221e-05
-0.0020118441
-4.663912e-05
-4.3601979e-05
-0.0020211583
-0.0019099602
-3.5360055e-05
-0.001890399
5.0335423e-05
-0.0018825065
4.9117851e-05
-0.0018848534
1.9635656e-05
-0.0018881519
3.3241615e-05
-0.0018978144
1.0025968e-05
-0.0019170239
-2.5687641e-05
-0.0019359518
-3.2093756e-05
-0.0019497491
-2.585997e-05
-0.0019597607
-2.0462738e-05
-0.0019689888
-1.8798432e-05
-0.0019796871
-2.090592e-05
-0.0019919084
-2.3171123e-05
-2.3137928e-05
-0.0020044349
-0.0019050613
-0.0018794333
-0.0018388546
-0.0018251073
-0.0018013523
-0.0017953321
-0.00182545
-0.0018589459
-0.0018820049
-0.0018952662
-0.0019039464
-0.0019142652
-0.0019271333
-0.0019388881
-0.001067351
0.0020107722
-0.00023412039
-0.0009569431
0.00030560231
-0.000340418
-0.0017712662
0.0029669049
-0.0028851159
-0.0016299559
0.0023980402
-0.0024251674
-0.0015992485
0.0024847086
-0.0025461864
-0.0015397144
0.0024805756
-0.0025380625
-0.0014797827
0.0024807015
-0.0025387567
-0.0014118258
0.0024820102
-0.0025374272
-0.0013109294
0.0024884654
-0.0025335456
-0.0011262335
0.0025067421
-0.0025314151
-0.00085492351
0.0025335236
-0.0025514427
-0.00054439589
0.0025702504
-0.0026274807
-0.00028441157
0.0026741385
-0.002783882
0.0024660223
-0.0027087399
-0.00076484059
0.0034749548
-0.0010131961
0.00076828207
-0.001768939
0.0029552601
-0.0016487653
0.0023722651
-0.0016221654
0.0024156904
-0.0015494057
0.0024095365
-0.0014756111
0.0024091684
-0.0013905154
0.002411162
-0.0012626353
0.0024199476
-0.001034422
0.002441228
-0.00071241523
0.0024648526
-0.00032505584
0.0024864437
-5.9668623e-05
0.0026494056
0.0023987366
-0.00050163808
0.0043899087
-0.000876854
0.0013372181
-0.0015341089
0.0029116164
-0.0014694267
0.0023695369
-0.0014592913
0.0023528075
-0.0013928844
0.0023438841
-0.0013233348
0.0023427863
-0.0012393484
0.0023451047
-0.0011071999
0.0023542568
-0.00087792003
0.0023732411
-0.00057537963
0.0023884713
-0.00020668209
0.0023928687
4.4954465e-05
0.0025814588
0.0022950392
-9.8051591e-05
0.0049431726
-0.00062686087
0.0018401589
-0.0012273335
0.002885014
-0.0012236986
0.0023781912
-0.0012327968
0.0023037949
-0.0011798374
0.0022900934
-0.0011211812
0.0022880899
-0.0010460124
0.0022905292
-0.00092157142
0.0022991367
-0.0007108844
0.0023152934
-0.00045024953
0.0023256846
-0.00011344048
0.0023067839
0.00010780371
0.0025005652
0.0022139896
0.00027614897
0.0051885353
-0.0003725757
0.0023362938
-0.00094950391
0.0028582353
-0.0010064385
0.0023871174
-0.0010349744
0.0022678302
-0.0009955371
0.0022476469
-0.00094733247
0.0022443725
-0.00088133717
0.0022466272
-0.0007669557
0.0022538692
-0.00057708511
0.0022663857
-0.00035683402
0.0022748907
-5.3750204e-05
0.0022338519
0.00013932995
0.0024192546
0.0021610055
0.00059683419
0.0051072751
-0.00013158797
0.0028552013
-0.00067799364
0.0028387835
-0.0007950382
0.0024016745
-0.00084754067
0.0022453861
-0.00082289369
0.0022167716
-0.00078534838
0.0022113403
-0.00072936048
0.0022130528
-0.00062752165
0.0022183184
-0.00046008676
0.0022263337
-0.00027877735
0.0022337984
-2.0020098e-05
0.002175345
0.00014604299
0.0023389762
0.0021231199
0.00079971758
0.0047788601
0.00013097385
0.0032461966
-0.00042598431
0.0028990895
-0.00059667503
0.0024247754
-0.00067999847
0.0022351584
-0.0006697007
0.0021948217
-0.00064058857
0.0021859089
-0.00059281475
0.0021865721
-0.00050372604
0.0021895575
-0.00035911982
0.0021927948
-0.00021207665
0.0021987509
7.6904393e-07
0.0021298355
0.00013614293
0.0022642437
0.0020909628
0.00088076
0.0043089231
0.00033862363
0.0034821302
-0.00018808697
0.0029629645
-0.00040665992
0.002449382
-0.00052598821
0.0022345704
-0.00053018542
0.0021789111
-0.00050812888
0.0021650687
-0.00046724242
0.0021641232
-0.00039143988
0.0021648616
-0.00027177189
0.0021637295
-0.00015384605
0.0021678879
7.3251322e-06
0.0020950649
0.00011719025
0.0021986867
0.0020619324
0.00082855396
0.0038313631
0.00049043327
0.0035214917
5.2631687e-05
0.0029867508
-0.00023541687
0.0024718434
-0.00038896171
0.0022377055
-0.00040739434
0.0021653294
-0.00039137105
0.0021455013
-0.00035593974
0.0021425692
-0.00029333915
0.0021413568
-0.00019799
0.002136756
-0.00010774717
0.0021388507
6.169872e-06
0.0020682421
9.0995539e-05
0.002142962
0.0020343873
0.00069371353
0.0034282894
0.00056791919
0.0034017945
0.00020722553
0.0029523249
-8.36499e-05
0.0024746652
-0.00026683789
0.002236302
-0.000298558
0.0021502293
-0.00028766536
0.0021242171
-0.0002565579
0.0021191183
-0.00020702291
0.0021165189
-0.00013601726
0.0021097345
-7.4735153e-05
0.0021094833
-1.309649e-06
0.0020479286
6.1955208e-05
0.0020970961
0.0020077361
0.00058143607
0.0030819558
0.00061697625
0.003193888
0.00033819381
0.0028687838
6.0167656e-05
0.0024514117
-0.0001350695
0.0022285096
-0.00018172348
0.0021329278
-0.00017876128
0.0021014535
-0.00015400427
0.0020940042
-0.00012006088
0.0020907348
-7.6886099e-05
0.0020839281
-4.6814555e-05
0.0020824229
-1.4610411e-05
0.0020349781
3.4557009e-05
0.0020613118
0.0019869477
0.00045560692
0.0028037123
0.00059381339
0.002955605
0.00040923212
0.0027463745
0.00015167858
0.0024024969
-2.3402655e-05
0.0022059724
-8.0120201e-05
0.0021089966
-8.4401821e-05
0.0020747727
-6.5612096e-05
0.0020654625
-4.6910053e-05
0.0020624824
-3.212863e-05
0.0020578547
-3.0796023e-05
0.0020564187
-2.9703088e-05
0.0020271752
9.1247559e-06
0.0020340216
0.001970459
0.00036371092
0.0025730414
0.00055354587
0.0027250496
0.00045626202
0.0025996349
0.00023644543
0.0023374339
7.8792043e-05
0.002169164
2.1408265e-05
0.0020784656
1.0626176e-05
0.0020453322
2.058848e-05
0.0020346995
2.169803e-05
0.00203269
4.5017352e-06
0.0020327097
-2.3174993e-05
0.0020327889
-4.2853776e-05
0.0020233317
-1.4575309e-05
0.0020162603
0.0019533118
0.0002701106
0.00046934446
0.00045276408
0.00028211456
0.00014883711
9.3328669e-05
8.395826e-05
8.9354591e-05
7.5474009e-05
2.6954397e-05
-2.9842223e-05
-5.660682e-05
-3.1523388e-05
-0.015880635
-0.0017645968
0.015055954
-0.016575001
-0.0024108366
-0.016737926
-0.002286662
-0.017189717
-0.0023805724
-0.017339194
-0.0023705256
-0.017509888
-0.0023728811
-0.017677433
-0.0023727916
-0.017847947
-0.0023730603
-0.018020739
-0.0023741611
-0.0181629
-0.0023776875
-0.01816725
-0.0023857058
-0.017938541
-0.0023981008
-0.017492766
-0.0024100254
-0.0023859645
-0.01686421
-0.016577491
-0.002202828
0.016720691
-0.01682341
-0.0021970333
-0.01700862
-0.0022071904
-0.017174708
-0.002205884
-0.017342974
-0.0022066091
-0.017508902
-0.0022065346
-0.017674799
-0.0022065444
-0.017839978
-0.0022065239
-0.018004196
-0.0022065074
-0.01816785
-0.0022066307
-0.018331535
-0.0022073058
-0.018491593
-0.0022092066
-0.01862586
-0.0022135235
-0.0022202113
-0.018670286
-0.016675323
-0.0020403045
0.016508257
-0.016843378
-0.002040369
-0.017010082
-0.0020402908
-0.017176648
-0.0020403692
-0.017342803
-0.0020403552
-0.017509014
-0.0020403602
-0.017675214
-0.0020403598
-0.017841421
-0.0020403611
-0.018007593
-0.0020403663
-0.018173556
-0.0020403805
-0.018338846
-0.0020404032
-0.018502836
-0.0020404509
-0.018664662
-0.0020405808
-0.0020408998
-0.018821861
-0.016677966
-0.0018741603
0.016511804
-0.016844211
-0.0018741688
-0.017010432
-0.0018741685
-0.017176623
-0.0018741678
-0.017342817
-0.0018741683
-0.017509008
-0.0018741682
-0.0176752
-0.0018741683
-0.017841391
-0.0018741683
-0.018007582
-0.0018741684
-0.018173777
-0.0018741693
-0.018339975
-0.001874172
-0.018506138
-0.0018741783
-0.018672123
-0.0018741875
-0.0018741913
-0.018837618
-0.016678051
-0.0017079768
0.016511861
-0.016844242
-0.0017079767
-0.017010434
-0.0017079768
-0.017176626
-0.0017079767
-0.017342817
-0.0017079768
-0.017509009
-0.0017079767
-0.0176752
-0.0017079768
-0.017841392
-0.0017079767
-0.018007583
-0.0017079768
-0.018173774
-0.0017079768
-0.018339965
-0.0017079769
-0.018506156
-0.001707977
-0.018672346
-0.0017079776
-0.0017079783
-0.018838517
-0.016678051
-0.0015417853
0.01651186
-0.016844243
-0.0015417853
-0.017010434
-0.0015417853
-0.017176626
-0.0015417853
-0.017342817
-0.0015417853
-0.017509009
-0.0015417853
-0.0176752
-0.0015417853
-0.017841392
-0.0015417854
-0.018007583
-0.0015417853
-0.018173775
-0.0015417853
-0.018339966
-0.0015417853
-0.018506157
-0.0015417853
-0.018672349
-0.0015417853
-0.0015417853
-0.01883854
-0.016678051
-0.0013755938
0.01651186
-0.016844243
-0.0013755937
-0.017010434
-0.0013755938
-0.017176626
-0.0013755938
-0.017342817
-0.0013755938
-0.017509009
-0.0013755937
-0.0176752
-0.0013755938
-0.017841392
-0.0013755938
-0.018007583
-0.0013755937
-0.018173775
-0.0013755938
-0.018339966
-0.0013755938
-0.018506158
-0.0013755938
-0.018672349
-0.0013755937
-0.0013755938
-0.01883854
-0.016678051
-0.0012094024
0.01651186
-0.016844243
-0.0012094023
-0.017010434
-0.0012094023
-0.017176626
-0.0012094024
-0.017342817
-0.0012094023
-0.017509009
-0.0012094023
-0.0176752
-0.0012094024
-0.017841392
-0.0012094023
-0.018007583
-0.0012094023
-0.018173775
-0.0012094024
-0.018339966
-0.0012094023
-0.018506158
-0.0012094023
-0.018672349
-0.0012094024
-0.0012094023
-0.01883854
-0.016678051
-0.0010432108
0.01651186
-0.016844243
-0.0010432108
-0.017010434
-0.0010432108
-0.017176626
-0.0010432108
-0.017342817
-0.0010432108
-0.017509009
-0.0010432108
-0.0176752
-0.0010432108
-0.017841392
-0.0010432108
-0.018007583
-0.0010432108
-0.018173775
-0.0010432108
-0.018339966
-0.0010432108
-0.018506158
-0.0010432108
-0.018672349
-0.0010432108
-0.0010432108
-0.01883854
-0.016678051
-0.00087701931
0.01651186
-0.016844243
-0.00087701939
-0.017010434
-0.0008770194
-0.017176626
-0.00087701931
-0.017342817
-0.00087701939
-0.017509009
-0.00087701931
-0.0176752
-0.00087701939
-0.017841392
-0.00087701931
-0.018007583
-0.00087701939
-0.018173775
-0.00087701931
-0.018339966
-0.00087701939
-0.018506158
-0.00087701931
-0.018672349
-0.0008770194
-0.00087701939
-0.01883854
-0.016678051
-0.00071082786
0.01651186
-0.016844243
-0.00071082786
-0.017010434
-0.00071082794
-0.017176626
-0.00071082786
-0.017342817
-0.00071082785
-0.017509009
-0.00071082786
-0.0176752
-0.00071082786
-0.017841392
-0.00071082786
-0.018007583
-0.00071082794
-0.018173775
-0.00071082786
-0.018339966
-0.00071082786
-0.018506158
-0.00071082785
-0.018672349
-0.00071082786
-0.00071082786
-0.018838541
-0.016678051
-0.00054463641
0.01651186
-0.016844243
-0.0005446364
-0.017010434
-0.00054463641
-0.017176626
-0.0005446364
-0.017342817
-0.00054463632
-0.017509009
-0.0005446364
-0.0176752
-0.0005446364
-0.017841392
-0.00054463641
-0.018007583
-0.00054463632
-0.018173775
-0.00054463641
-0.018339966
-0.0005446364
-0.018506157
-0.00054463641
-0.018672349
-0.0005446364
-0.00054463632
-0.01883854
-0.016678051
-0.00037844487
0.01651186
-0.016844243
-0.00037844487
-0.017010434
-0.00037844495
-0.017176626
-0.00037844487
-0.017342817
-0.00037844495
-0.017509009
-0.00037844487
-0.0176752
-0.00037844487
-0.017841392
-0.00037844495
-0.018007583
-0.00037844487
-0.018173775
-0.00037844495
-0.018339966
-0.00037844487
-0.018506158
-0.00037844487
-0.018672349
-0.00037844495
-0.00037844487
-0.01883854
-0.016678051
0.01651186
-0.00021225342
-0.016844243
-0.00021225342
-0.017010434
-0.00021225342
-0.017176626
-0.00021225342
-0.017342817
-0.00021225342
-0.017509009
-0.00021225342
-0.0176752
-0.00021225342
-0.017841392
-0.00021225342
-0.018007583
-0.00021225342
-0.018173775
-0.00021225342
-0.018339966
-0.00021225342
-0.018506158
-0.00021225342
-0.018672349
-0.00021225342
-0.00021225342
-0.01883854
-0.0027874057
-0.016681198
-0.0025802057
-0.015537015
-0.0022495064
-0.015538461
-0.0018007845
-0.015529989
-0.0013503411
-0.015529954
-0.00089985708
-0.015529953
-0.00044937268
-0.015529953
1.1117177e-06
-0.015529953
0.0004515962
-0.015529953
0.0009020806
-0.015529953
0.001352565
-0.015529953
0.0018030494
-0.015529953
0.0022535339
-0.015529953
-0.015529953
0.0027040183
-0.0027613741
-0.016882997
-0.0025483108
-0.016004769
-0.0022189127
-0.01598278
-0.0017731265
-0.0159777
-0.0013254348
-0.01597767
-0.00087771794
-0.01597767
-0.00043000096
-0.01597767
1.7716113e-05
-0.01597767
0.0004654331
-0.01597767
0.00091315017
-0.01597767
0.0013608672
-0.01597767
0.0018085842
-0.01597767
0.0022563012
-0.01597767
-0.01597767
0.0027040183
-0.0037517533
-0.0036273315
-0.0031702075
-0.0026378705
-0.0021036918
-0.0015695018
-0.0010353118
-0.00050112175
3.306819e-05
0.00056725823
0.0011014483
0.0016356383
0.0021698283
0.0027040183
0.00030589463
0.28780565
0.28780565
0.00030589463
0.28781189
0.00029965188
0.28781189
0.00029340914
0.28781189
0.28781189
0.00030589463
0.28781814
0.00029965189
0.28781814
0.00029340914
0.28781814
0.00028716639
0.28781814
0.28781814
0.00030589463
0.28782438
0.00029965189
0.28782438
0.00029340914
0.28782438
0.00028716639
0.28782438
0.00028092364
0.28782438
0.00027468089
0.28782438
0.28782438
0.00030589463
0.28783062
0.00029965188
0.28783062
0.00029340914
0.28783062
0.00028716639
0.28783062
0.00028092364
0.28783062
0.00027468089
0.28783062
0.00026843814
0.28783062
0.28783062
0.00030589463
0.28783686
0.00029965189
0.28783686
0.00029340914
0.28783686
0.00028716639
0.28783686
0.00028092364
0.28783686
0.00027468089
0.28783686
0.00026843815
0.28783686
0.0002621954
0.28783686
0.00025595265
0.28783686
0.28783686
0.00030589463
0.28784311
0.00029965188
0.28784311
0.00029340914
0.28784311
0.00028716639
0.28784311
0.00028092364
0.28784311
0.00027468089
0.28784311
0.00026843814
0.28784311
0.0002621954
0.28784311
0.00025595265
0.28784311
0.0002497099
0.28784311
0.28784311
0.00030589463
0.28784935
0.00029965189
0.28784935
0.00029340914
0.28784935
0.00028716639
0.28784935
0.00028092364
0.28784935
0.00027468089
0.28784935
0.00026843814
0.28784935
0.0002621954
0.28784935
0.00025595265
0.28784935
0.00024970991
0.28784935
0.00024346715
0.28784935
0.28784935
0.00030589463
0.28785559
0.00029965188
0.28785559
0.00029340914
0.28785559
0.00028716639
0.28785559
0.00028092364
0.28785559
0.00027468089
0.28785559
0.00026843815
0.28785559
0.0002621954
0.28785559
0.00025595265
0.28785559
0.0002497099
0.28785559
0.00024346716
0.28785559
0.00023722441
0.28785559
0.28785559
0.00030589463
0.28786184
0.00029965189
0.28786183
0.00029340914
0.28786184
0.00028716639
0.28786184
0.00028092364
0.28786184
0.00027468089
0.28786183
0.00026843814
0.28786184
0.0002621954
0.28786184
0.00025595265
0.28786183
0.0002497099
0.28786184
0.00024346716
0.28786184
0.00023722441
0.28786184
0.00023098166
0.28786184
0.28786184
0.00030589463
0.28786808
0.00029965189
0.28786808
0.00029340914
0.28786808
0.00028716639
0.28786808
0.00028092364
0.28786808
0.00027468089
0.28786808
0.00026843815
0.28786808
0.0002621954
0.28786808
0.00025595265
0.28786808
0.0002497099
0.28786808
0.00024346715
0.28786808
0.00023722441
0.28786808
0.00023098166
0.28786808
0.28786808
0.00022473892
0.00030589463
0.28787432
0.00029965188
0.28787432
0.00029340914
0.28787432
0.00028716639
0.28787432
0.00028092364
0.28787432
0.00027468089
0.28787432
0.00026843814
0.28787432
0.0002621954
0.28787432
0.00025595265
0.28787432
0.0002497099
0.28787432
0.00024346716
0.28787432
0.00023722441
0.28787432
0.00023098166
0.28787432
0.28787432
0.00022473891
0.00030589463
0.28788056
0.00029965189
0.28788056
0.00029340914
0.28788056
0.00028716639
0.28788056
0.00028092364
0.28788056
0.00027468089
0.28788056
0.00026843815
0.28788056
0.0002621954
0.28788056
0.00025595265
0.28788056
0.0002497099
0.28788056
0.00024346716
0.28788056
0.00023722441
0.28788056
0.00023098166
0.28788056
0.28788056
0.00022473892
0.00030589463
0.28788681
0.00029965188
0.28788681
0.00029340914
0.28788681
0.00028716639
0.28788681
0.00028092364
0.28788681
0.00027468089
0.28788681
0.00026843814
0.28788681
0.0002621954
0.28788681
0.00025595265
0.28788681
0.0002497099
0.28788681
0.00024346716
0.28788681
0.00023722441
0.28788681
0.00023098166
0.28788681
0.28788681
0.00022473891
-0.00022161754
0.28789617
-0.00023098166
0.28789617
-0.00024034578
0.28789617
-0.00024970991
0.28789617
-0.00025907403
0.28789617
-0.00026843815
0.28789617
-0.00027780227
0.28789617
-0.00028716639
0.28789617
-0.00029653051
0.28789617
-0.00030589463
0.28789617
-0.00031525876
0.28789617
-0.00032462288
0.28789617
-0.000333987
0.28789617
0.28789617
-0.00022161754
0.28790553
-0.00023098166
0.28790553
-0.00024034578
0.28790553
-0.0002497099
0.28790553
-0.00025907402
0.28790553
-0.00026843814
0.28790553
-0.00027780227
0.28790553
-0.00028716639
0.28790553
-0.00029653051
0.28790553