/*--------------------------------*- C++ -*----------------------------------*\
| =========                 |                                                 |
| \\      /  F ield         | OpenFOAM: The Open Source CFD Toolbox           |
|  \\    /   O peration     | Version:  2206                                  |
|   \\  /    A nd           | Website:  www.openfoam.com                      |
|    \\/     M anipulation  |                                                 |
\*---------------------------------------------------------------------------*/
FoamFile
{
    version     2.0;
    format      ascii;
    arch        "LSB;label=32;scalar=64";
    class       volScalarField;
    location    "0.01";
    object      rho;
}
// * * * * * * * * * * * * * * * * * * * * * * * * * * * * * * * * * * * * * //

dimensions      [1 -3 0 0 0 0 0];

internalField   nonuniform List<scalar> 
1396
(
0.99999904
0.99999904
0.99999904
0.99999904
0.99999904
0.99999904
0.99999904
0.99999904
0.99999904
0.99999904
0.99999904
0.99999904
0.99999904
0.99999904
0.99999904
0.99999904
0.99999904
0.99999904
0.99999904
0.99999904
0.99999904
0.99999904
0.99999904
0.99999904
0.99999904
0.99999904
0.99999904
0.99999904
0.99999904
0.99999904
0.99999904
0.99999904
0.99999904
0.99999904
0.99999904
0.99999904
0.99999904
0.99999904
0.99999904
0.99999904
0.99999904
0.99999904
0.99999904
0.99999904
0.99999904
0.99999904
0.99999904
0.99999904
0.99999904
0.99999904
0.99999904
0.99999904
0.99999904
0.99999904
0.99999904
0.99999904
0.99999904
0.99999904
0.99999904
0.99999904
0.99999904
0.99999904
0.99999904
0.99999904
0.99999904
0.99999904
0.99999904
0.99999904
0.99999904
0.99999904
0.99999904
0.99999904
0.99999904
0.99999904
0.99999904
0.99999904
0.99999904
0.99999904
0.99999904
0.99999904
0.99999904
0.99999904
0.99999904
0.99999904
0.99999904
0.99999904
0.99999904
0.99999904
0.99999904
0.99999904
0.99999904
0.99999904
0.99999904
0.99999904
0.99999904
0.99999904
0.99999904
0.99999904
0.46285827
0.80482892
0.9466277
0.46608359
0.81449463
0.95537544
0.46709936
0.82098571
0.95953237
0.46859061
0.82876562
0.96481083
0.47011801
0.83582338
0.96887142
0.47176601
0.84279389
0.97212184
0.473725
0.84961787
0.97503059
0.4761321
0.85635545
0.97805156
0.47848982
0.86312741
0.98120394
0.48032698
0.87039718
0.98373573
0.48169553
0.87765745
0.98569877
0.48441338
0.885207
0.98684902
0.49183967
0.89314778
0.98705244
0.50761113
0.90074551
0.98548915
0.99178744
1.0094569
0.97952763
0.98035197
0.97690504
1.0665131
1.0945706
1.0840497
1.0450528
1.0178155
1.0022261
0.99316375
0.98596869
0.97968753
0.9739373
0.97214827
0.96380422
0.90880755
0.91958852
1.0023539
1.031846
1.040002
1.0241906
1.0082802
0.9956833
0.98493369
0.97553909
0.96797802
0.96162585
0.96245402
0.9573447
0.9716176
0.96901921
0.99158205
1.0041714
1.0102398
1.0061754
0.9980489
0.98731986
0.97533745
0.96436559
0.95625478
0.9496032
0.95308431
0.94977922
0.99264825
0.99343117
0.99642932
0.9992089
0.9995636
0.99700763
0.99009157
0.97866918
0.96503754
0.95279638
0.94481269
0.93817961
0.94428004
0.94165244
0.93306942
0.99999904
0.99999904
0.99999904
0.99999904
0.99999904
0.99999904
0.99999904
0.99999904
0.99999902
0.99999802
0.99995241
0.99937518
0.99466774
0.90585952
0.99999904
0.99999904
0.99999904
0.99999904
0.99999904
0.99999904
0.99999904
0.99999904
0.99999901
0.99999799
0.99995141
0.99936633
0.99459045
0.90487525
0.99999904
0.99999904
0.99999904
0.99999904
0.99999904
0.99999904
0.99999904
0.99999904
0.99999901
0.99999797
0.99995064
0.99935941
0.99452244
0.90395684
0.99999904
0.99999904
0.99999904
0.99999904
0.99999904
0.99999904
0.99999904
0.99999904
0.99999901
0.99999795
0.99994991
0.99935275
0.99445692
0.90304522
0.99999904
0.99999904
0.99999904
0.99999904
0.99999904
0.99999904
0.99999901
0.99999793
0.99994922
0.99934658
0.9943979
0.90219382
0.99999904
0.99999904
0.99999904
0.99999904
0.99999904
0.99999901
0.99999792
0.99994869
0.99934221
0.99435685
0.9015585
0.99999904
0.99999904
0.99999904
0.99999904
0.99999901
0.99999792
0.99994839
0.99934056
0.99433609
0.90119311
0.99999904
0.99999904
0.99999901
0.99999792
0.99994838
0.99934166
0.99433071
0.90108341
0.99999904
0.99999901
0.99999791
0.99994833
0.99934119
0.99430303
0.9007351
0.99999901
0.9999979
0.99994772
0.99933327
0.99423099
0.89972425
0.99999788
0.99994678
0.99932751
0.99418096
0.89876053
0.99994798
0.99934494
0.99436121
0.90021789
0.99937773
0.99449898
0.90636552
0.99494553
0.88606031
0.99999904
0.99999904
0.99999904
0.99999904
0.99999904
0.99999904
0.99999904
0.99999904
0.99999904
0.99999904
0.99999904
0.99999904
0.99999904
0.99999904
0.99999904
0.99999904
0.9701129
0.97763284
0.98602839
0.99186917
0.99409535
0.99648046
1.0005134
1.005316
1.0100504
1.0148161
1.0206485
1.0270149
1.031816
1.0387987
0.98056999
0.9880811
0.99555698
1.0022866
1.0083757
1.0150772
1.0231128
1.0324694
1.0429215
1.054429
1.0672544
1.0815922
1.0978278
1.1176607
0.98383765
0.99232876
0.99990408
1.0069762
1.0141274
1.0220358
1.0309714
1.0408737
1.0516596
1.0634422
1.0763702
1.0906232
1.1065406
1.1243057
0.98885458
0.99635883
1.0030256
1.0091324
1.0151697
1.0214415
1.0280744
1.0350642
1.0423853
1.0500591
1.0580417
1.0661878
1.074172
1.0816186
0.99345671
0.99904828
1.0037756
1.0079376
1.0118393
1.0155659
1.0192051
1.0228452
1.0264777
1.0300799
1.0336251
1.037061
1.0402782
1.0428898
0.99824192
1.0010753
1.0034742
1.0054544
1.0071739
1.0086969
1.0100803
1.0114011
1.0126167
1.0136682
1.0145284
1.0152063
1.0156984
1.0158768
1.0055608
1.0053868
1.0057471
1.0058228
1.0058899
1.00602
1.0061663
1.0062924
1.0063737
1.0063889
1.0063441
1.0062583
1.0061313
1.0058964
1.0228697
1.0192616
1.017421
1.0150884
1.0130207
1.0115956
1.010537
1.0095582
1.0086316
1.0077146
1.0068099
1.0059242
1.0050734
1.0042782
1.0554432
1.0508706
1.0474006
1.0418687
1.0360953
1.0313425
1.0276216
1.0245925
1.0220282
1.0195802
1.0171142
1.0146674
1.0123532
1.0102953
1.1115435
1.1183807
1.1161903
1.1056483
1.0915005
1.0788968
1.0688569
1.0610304
1.0545476
1.0485871
1.0426496
1.0367023
1.0309685
1.0258185
1.1337781
1.1490866
1.1584036
1.1559809
1.1441964
1.1258788
1.107198
1.0937088
1.0848556
1.0776608
1.070164
1.0619015
1.0534363
1.0456261
1.1252932
1.1727594
1.20327
1.212886
1.205916
1.1838886
1.1577394
1.1395084
1.1280276
1.1187501
1.1088767
1.0976059
1.0854046
1.0731753
1.0712835
1.1156996
1.1515092
1.170511
1.1784545
1.1675218
1.1450322
1.1265301
1.114767
1.1073206
1.1010178
1.0934408
1.0842109
1.0739594
0.96902129
1.0695369
1.1032429
1.1322803
1.1475169
1.1413228
1.1173099
1.0981894
1.0876954
1.0834009
1.0807224
1.0767902
1.0710734
1.063448
2.4623537
0.65694281
1.2616845
0.97373018
1.0033453
0.99977798
0.99990265
0.99924712
0.99580607
0.98284477
0.95249883
0.90997074
0.87239269
0.78717429
1.9607106
0.79730951
1.2600269
0.97981233
1.0040848
0.99979573
0.99989374
0.9992055
0.99575997
0.9829292
0.95239222
0.9070865
0.87900385
0.79648931
1.8041199
0.85546223
1.2482114
0.98799247
1.0046963
0.9998631
0.99984626
0.99896469
0.99495939
0.98162671
0.95241763
0.91127902
0.89940772
0.82670877
1.7184691
0.95922832
1.2350562
0.99953709
1.005253
0.99996551
0.99979164
0.99871231
0.99417343
0.98058509
0.95306576
0.91353255
0.91076112
0.85276664
1.6468438
1.0749204
1.2213224
1.0117352
1.006271
1.0001051
0.99974554
0.99849857
0.99358337
0.98011447
0.95496612
0.91602864
0.91936924
0.87624804
1.5598905
1.1831039
1.2114334
1.0234047
1.0083726
1.000363
0.9997163
0.99835322
0.99327362
0.9803105
0.95818362
0.92094322
0.92800219
0.89836418
1.4590532
1.2548386
1.2271314
1.0353602
1.0122652
1.0009265
0.99973609
0.99832334
0.99338994
0.9814838
0.96291482
0.92863561
0.93799359
0.92001555
1.3577168
1.3050999
1.2394836
1.0493111
1.018006
1.0020067
0.99987557
0.9984541
0.99403159
0.98385089
0.96931484
0.93916986
0.95011339
0.94159422
1.2667357
1.3239268
1.2416579
1.0677383
1.0249674
1.0037376
1.0002237
0.99876374
0.9952265
0.98735611
0.97724272
0.95281816
0.96447086
0.96302638
1.1994863
1.3100204
1.2350828
1.0832418
1.0323003
1.0059886
1.0007953
0.99925853
0.99693068
0.99190321
0.98671675
0.96968428
0.9810937
0.98325257
1.1441015
1.275142
1.2228731
1.091124
1.0402154
1.0087426
1.0016741
0.99994071
0.99910785
0.99758907
0.99779232
0.98925093
0.99885379
1.0022267
1.1046708
1.232476
1.20358
1.0945258
1.0448259
1.0116006
1.0028501
1.0008408
1.0017041
1.0040251
1.0097385
1.0106181
1.0174075
1.019454
1.0724409
1.1877132
1.1778561
1.0945937
1.0458199
1.013848
1.0045373
1.002126
1.0046161
1.0111565
1.0221537
1.0322373
1.0363377
1.0350005
1.0538192
1.147989
1.1494187
1.0902997
1.0452367
1.015529
1.0052788
1.0031664
1.0076067
1.0188131
1.0345276
1.0533523
1.0550784
1.0461105
1.0288257
1.1262209
0.98324235
1.0072968
0.99935912
1.0000748
1.000012
1.0000815
1.0002964
1.0006752
1.0001801
0.99465813
0.97804998
0.94806614
1.016558
0.99869871
1.0022212
0.99973639
1.0000653
0.99999221
0.99999722
0.99998736
0.99995919
0.99988363
0.99972012
0.99943936
0.99892388
0.99752932
0.99996248
1.000241
0.99996701
1.0000175
0.99999676
0.99999949
0.99999915
0.99999963
1.0000004
0.99999951
0.99998686
0.99993882
0.99981889
0.99959173
0.99999838
0.9999981
1.0000007
0.99999873
0.99999915
0.99999903
0.99999904
0.99999903
0.99999899
0.9999989
0.99999883
0.99999848
0.99999541
0.99998288
0.99999913
0.99999904
0.99999903
0.99999905
0.99999904
0.99999904
0.99999904
0.99999904
0.99999904
0.99999903
0.99999901
0.99999895
0.99999887
0.9999987
0.99999904
0.99999904
0.99999904
0.99999904
0.99999904
0.99999904
0.99999904
0.99999904
0.99999904
0.99999904
0.99999904
0.99999904
0.99999903
0.99999903
0.99999904
0.99999904
0.99999904
0.99999904
0.99999904
0.99999904
0.99999904
0.99999904
0.99999904
0.99999904
0.99999904
0.99999904
0.99999904
0.99999904
0.99999904
0.99999904
0.99999904
0.99999904
0.99999904
0.99999904
0.99999904
0.99999904
0.99999904
0.99999904
0.99999904
0.99999904
0.99999904
0.99999904
0.99999904
0.99999904
0.99999904
0.99999904
0.99999904
0.99999904
0.99999904
0.99999904
0.99999904
0.99999904
0.99999904
0.99999904
0.99999904
0.99999904
0.99999904
0.99999904
0.99999904
0.99999904
0.99999904
0.99999904
0.99999904
0.99999904
0.99999904
0.99999904
0.99999904
0.99999904
0.99999904
0.99999904
0.99999904
0.99999904
0.99999904
0.99999904
0.99999904
0.99999904
0.99999904
0.99999904
0.99999904
0.99999904
0.99999904
0.99999904
0.99999904
0.99999904
0.99999904
0.99999904
0.99999904
0.99999904
0.99999904
0.99999904
0.99999904
0.99999904
0.99999904
0.99999904
0.99999904
0.99999904
0.99999904
0.99999904
0.99999904
0.99999904
0.99999904
0.99999904
0.99999904
0.99999904
0.99999904
0.99999904
0.99999904
0.99999904
0.99999904
0.99999904
0.99999904
0.99999904
0.99999904
0.99999904
0.99999904
0.99999904
0.99999904
0.99999904
0.99999904
0.99999904
0.99999904
0.99999904
0.99999904
0.99999904
0.99999904
0.99999904
1.0821632
1.0022127
1.0005896
1.0000036
0.99999914
0.99999904
0.99999904
0.99999904
0.99999904
0.99999904
0.99999904
0.99999904
0.99999904
0.99999904
1.0792003
1.0021405
1.000573
1.0000042
0.99999909
0.99999904
0.99999904
0.99999904
0.99999904
0.99999904
0.99999904
0.99999904
0.99999904
0.99999904
1.0738831
1.0050067
1.0003068
1.000004
0.99999906
0.99999904
0.99999904
0.99999904
0.99999904
0.99999904
0.99999904
0.99999904
0.99999904
0.99999904
0.99999904
0.99999904
0.99999904
0.99999904
0.99999904
0.99999904
0.99999904
0.99999904
0.99999904
0.99999904
0.99999904
0.99999904
0.99999904
0.99999904
0.99999904
0.99999904
0.99999904
0.99999904
0.99999904
0.99999904
0.99999904
0.99999904
0.99999904
0.99999904
0.99999904
0.99999904
0.99999904
0.99999904
0.99999904
0.99999904
0.99999904
0.99999904
0.99999904
0.99999904
0.99999904
0.99999904
0.99999904
0.99999904
0.99999904
0.99999904
0.99999904
0.99999904
0.99999904
0.99999904
0.99999904
0.99999904
0.99999904
0.99999904
0.99999904
0.99999904
0.99999904
0.99999904
0.99999904
0.99999904
0.99999904
0.99999904
0.99999904
0.99999904
0.99999904
0.99999904
0.99999904
0.99999904
0.99999904
0.99999904
0.99999904
0.99999904
0.99999904
0.99999904
0.99999904
0.99999904
0.99999904
0.99999904
0.99999904
0.99999904
0.99999904
0.99999904
0.99999904
0.99999904
0.99999904
0.99999904
0.99999904
0.99999904
0.99999904
0.99999904
0.99999904
0.99999904
0.99999904
0.99999904
0.99999904
0.99999904
0.99999904
0.99999904
0.99999904
0.99999904
0.99999904
0.99999904
0.99999904
0.99999904
0.99999904
0.99999904
0.99999904
0.99999904
0.99999904
0.99999904
0.99999904
0.99999904
0.99999904
0.99999904
0.99999904
0.99999904
0.99999904
0.99999904
0.99999904
0.99999904
0.99999904
0.99999904
0.99999904
0.99999904
0.99999904
0.99999904
0.99999904
0.99999904
0.99999904
0.99999904
0.99999904
0.99999904
0.99999904
0.99999904
0.99999904
0.99999904
0.99999904
0.99999904
0.99999904
0.99999904
0.99999904
0.99999904
0.99999904
0.99999904
0.99999904
0.99999904
0.99999904
0.99999904
0.99999904
0.99999904
0.99999904
0.99999904
0.99999904
0.99999904
0.99999904
0.99999904
0.99999904
0.99999904
0.99999904
0.99999904
0.99999904
0.99999904
0.99999904
0.99999904
0.99999904
0.99999904
0.99999904
0.99999904
0.99999904
0.99999904
0.99999904
0.99999904
0.99999904
0.99999904
0.99999904
0.99999904
0.99999904
0.99999904
0.99999904
0.99999904
0.99999904
0.99999904
0.99999904
0.99999904
0.99999904
0.99999904
0.99999904
0.99999904
0.99999904
0.99999904
0.99999904
0.99999904
0.99999904
0.99999904
0.99999904
0.99999904
0.99999904
0.99999904
0.99999904
0.99999904
0.99999904
0.99999904
0.99999904
0.99999904
0.99999904
0.99999904
0.99999904
0.99999904
0.99999904
0.99999904
0.99999904
0.99999904
0.99999904
0.99999904
0.99999904
0.99999904
0.99999904
0.99999904
0.99999904
0.99999904
0.99999904
0.99999904
0.99999904
0.99999904
0.99999904
0.99999904
0.99999904
0.99999904
0.99999904
0.99999904
0.99999904
0.99999904
0.99999904
0.99999904
0.99999904
0.99999904
0.99999904
0.99999904
0.99999904
0.99999904
0.99999904
0.99999904
0.99999904
0.99999904
0.99999904
0.99999904
0.99999904
0.99999904
0.99999904
0.99999904
0.99999904
0.99999904
0.99999904
0.99999904
0.99999904
0.99999904
0.99999904
0.99999904
0.99999904
0.99999904
0.99999904
0.99999904
0.99999904
0.99999904
0.99999904
0.99999904
0.99999904
0.99999904
0.99999904
0.99999904
0.99999904
0.99999904
0.99999904
0.99999904
0.99999904
0.99999904
0.99999904
0.99999904
0.99999904
0.99999904
0.99999904
0.99999904
0.99999904
0.99999904
0.99999904
0.99999904
0.99999904
0.99999904
0.99999904
0.99999904
0.99999904
0.99999904
0.99999904
0.99999904
0.99999904
0.99999904
0.99999904
0.99999904
0.99999904
0.99999904
0.99999904
0.99999904
0.99999904
0.99999904
0.99999904
0.99999904
0.99999904
0.99999904
0.99999904
0.99999904
0.99999904
0.99999904
0.99999904
0.99999904
0.99999904
0.99999904
0.99999904
0.99999904
0.99999904
0.99999904
0.99999904
0.99999904
0.99999904
0.99999904
0.99999904
0.99999904
0.99999904
0.99999904
0.91191596
0.90882217
0.90453138
0.90247887
0.993999
0.9950834
0.99480825
0.99464485
0.99918754
0.99929409
0.9992531
0.99922309
0.99995061
0.99995429
0.99995029
0.9999474
0.99999781
0.99999799
0.99999788
0.99999779
0.99999901
0.99999901
0.99999901
0.999999
0.99999904
0.99999904
0.99999904
0.99999904
0.99999904
0.99999904
0.99999904
0.99999904
0.99999904
0.99999904
0.99999904
0.99999904
0.99999904
0.99999904
0.99999904
0.99999904
0.99999904
0.99999904
0.99999904
0.99999904
0.99999904
0.99999904
0.99999904
0.99999904
0.99999904
0.99999904
0.99999904
0.99999904
0.99999904
0.99999904
0.99999904
0.99999904
0.99999904
0.99999904
0.99999904
0.99999904
0.99999904
0.99999904
0.99999904
0.99999904
0.99999904
0.99999904
0.99999904
0.99999904
0.99999904
0.99999904
0.99999904
0.99999904
0.99999904
0.99999904
0.99999904
0.99999904
0.99999904
0.99999904
0.99999904
0.99999904
0.99999904
0.99999904
0.99999904
0.99999904
0.99999904
0.99999904
0.99999904
0.99999904
0.99999904
0.99999904
0.99999904
0.99999904
0.99999904
0.99999904
0.99999904
0.99999904
0.99999902
0.99999902
0.99999902
0.99999808
0.99999811
0.9999545
0.99995552
0.9993899
)
;

boundaryField
{
    Side
    {
        type            empty;
    }
    Inlet
    {
        type            calculated;
        value           nonuniform List<scalar> 
28
(
0.99999904
0.99999904
0.99999904
0.99999904
0.99999904
0.99999904
0.99999904
0.99999904
0.99999904
0.99999904
0.99999904
0.99999904
0.99999904
0.99999904
0.99999904
0.99999904
0.99999904
0.99999904
0.99999904
0.99999904
0.99999904
0.99999904
0.99999904
0.99999904
0.99999904
0.99999904
0.99999904
0.99999904
)
;
    }
    Airfoil
    {
        type            calculated;
        value           nonuniform List<scalar> 
60
(
0.53215029
0.53336923
0.53425572
0.53510947
0.53587976
0.53662403
0.53746289
0.5384045
0.53907283
0.53873587
0.53731301
0.53710689
0.54325387
0.56001049
0.87088936
0.86953046
0.86827841
0.86705785
0.8659232
0.86504802
0.86451336
0.86428248
0.86380008
0.86259308
0.86153804
0.86321163
0.8694244
0.85603955
0.97090346
1.0749309
1.132862
1.1721136
1.1935375
1.190429
1.1627581
1.1341016
1.1172099
1.1094915
1.1045249
1.097933
1.0886406
1.0778038
0.78065373
0.76717714
0.78048381
0.80297906
0.82823304
0.85556921
0.88405257
0.91271935
0.94090367
0.96783677
0.99402573
1.0180925
1.0398148
1.0601217
0.88413312
0.87335439
0.86791075
0.8649696
)
;
    }
    Outlet
    {
        type            calculated;
        value           nonuniform List<scalar> 0();
    }
    Flap
    {
        type            calculated;
        value           nonuniform List<scalar> 
36
(
0.95978322
0.94942721
0.93956632
0.92924682
0.91851196
0.96955932
0.97927345
0.99131879
1.0007984
1.0060019
1.0109262
1.017884
1.0263023
1.0352013
1.0445065
1.0553524
1.0675036
1.0784811
1.0909931
2.4543462
2.0475878
1.9626787
1.8760202
1.7930125
1.6916081
1.5787829
1.469787
1.3733954
1.2983926
1.2332654
1.1825537
1.1402598
1.1118286
1.115999
1.1101651
1.1058373
)
;
    }
    procBoundary2to1
    {
        type            processor;
        value           nonuniform List<scalar> 
73
(
0.99999904
0.99999904
0.99999904
0.99999904
0.99999904
0.99999904
0.99999904
0.99999904
0.99999904
0.99999904
0.99999904
0.99999904
0.99999904
0.99999904
0.99474377
0.90707655
0.99999904
0.99999904
0.99999904
0.99999904
0.99999904
0.99999904
0.99999904
0.99999904
0.99999904
0.99999904
0.99999904
0.99999904
0.99999904
0.99999904
0.99999904
0.99999904
0.99999904
0.99999904
0.99999904
0.99999904
0.99999904
0.99999904
0.99999904
0.99999904
0.90003013
0.99442739
0.99918714
0.9999439
0.9999977
0.999999
0.99999904
0.99999904
0.99999904
0.99999904
0.99999904
0.99999904
0.99999904
0.99999904
0.99999904
0.99999904
0.99999904
0.99999904
0.99999904
0.99999904
0.99999904
0.99999904
0.99999904
0.99999904
0.99999904
0.99999904
0.99999902
0.99999814
0.99999814
0.99995687
0.9993985
0.9993985
0.99474377
)
;
    }
    procBoundary2to3
    {
        type            processor;
        value           nonuniform List<scalar> 
113
(
0.99999904
0.99999904
0.98408894
1.0103594
0.98630783
0.9893132
0.99153132
0.99323602
0.99448007
0.99537941
0.99594748
0.99606141
0.99555152
0.99461269
0.99359464
0.992579
0.992579
0.99477589
0.99995242
0.99849107
0.99849107
1.0103594
0.9957096
0.99650141
0.99745457
0.99807181
0.99672136
0.99259912
0.98352817
0.96974129
0.95436968
0.94107536
0.93380965
0.92756817
0.93579594
0.93579594
0.92598797
0.99999904
0.99999904
0.99999904
0.99999904
0.99999904
0.99999904
0.99999904
0.99999904
0.99999904
0.99999904
0.99999904
0.99999904
0.99999904
0.99999904
0.99999904
0.99999901
0.99999901
0.99999792
0.99999792
0.99995393
0.99995393
0.99942263
0.99942263
0.99999904
0.99999904
0.99999904
0.99999904
0.99999904
0.99999904
0.99999904
0.99999904
0.99999904
0.99999904
0.99999904
0.99999904
0.99999904
0.99999904
0.99999904
1.0875363
1.0024655
1.0006663
1.0000043
0.99999914
0.99999904
0.99999904
0.99999904
0.99999904
0.99999904
0.99999904
0.99999904
0.99999904
0.99999904
0.99999904
0.99999904
0.99999904
0.99999904
0.99999904
0.99999904
0.99999904
0.99999904
0.99999904
0.99999904
0.99999904
0.99999904
0.99999904
0.99999904
0.99999904
0.99999904
0.99999904
0.99999904
0.99999904
0.99999904
0.99999904
0.99999904
0.99999904
0.99999904
)
;
    }
}


// ************************************************************************* //
