/*--------------------------------*- C++ -*----------------------------------*\
| =========                 |                                                 |
| \\      /  F ield         | OpenFOAM: The Open Source CFD Toolbox           |
|  \\    /   O peration     | Version:  2206                                  |
|   \\  /    A nd           | Website:  www.openfoam.com                      |
|    \\/     M anipulation  |                                                 |
\*---------------------------------------------------------------------------*/
FoamFile
{
    version     2.0;
    format      ascii;
    arch        "LSB;label=32;scalar=64";
    class       volScalarField;
    location    "0.01";
    object      T;
}
// * * * * * * * * * * * * * * * * * * * * * * * * * * * * * * * * * * * * * //

dimensions      [0 0 0 1 0 0 0];

internalField   nonuniform List<scalar> 
1396
(
1
1
1
1
1
1
1
1
1
1
1
1
1
1
1
1
1
1
1
1
1
1
1
1
1
1
1
1
1
1
1
1
1
1
1
1
1
1
1
1
1
1
1
1
1
1
1
1
1
1
1
1
1
1
1
1
1
1
1
1
1
1
1
1
1
1
1
1
1
1
1
1
1
1
1
1
1
1
1
1
1
1
1
1
1
1
1
1
1
1
1
1
1
1
1
1
1
1
1.1497046
1.0585723
1.0220989
1.1443639
1.0485008
1.0137795
1.1437732
1.042562
1.0103436
1.1419552
1.0351235
1.0059405
1.1398835
1.0284808
1.0029165
1.1374792
1.0218788
1.0008672
1.1345462
1.0153911
0.99930357
1.1307881
1.0089653
0.99770629
1.126613
1.0024197
0.99602577
1.1216023
0.99508985
0.99507334
1.1154619
0.98754122
0.99486853
1.108778
0.97978875
0.99577292
1.1045345
0.97222007
0.9975253
1.1032274
0.96566461
1.0000462
1.0053663
0.9800355
0.97046094
0.88506074
1.0121089
1.0238993
1.0366824
1.0336657
1.0191201
1.0082072
1.0016294
0.99837844
0.9969196
0.99651349
0.99634265
0.99635011
0.995828
0.96729644
1.0250674
1.0246958
1.0304159
1.0251525
1.0137746
1.005065
0.99907701
0.995406
0.99346198
0.99274072
0.99242174
0.99233927
0.99172974
1.0115053
1.0267082
1.0228804
1.0195904
1.0144691
1.0068923
1.0006671
0.99555037
0.99179423
0.98961274
0.98893267
0.9889111
0.98898522
0.98924708
1.008259
1.0144926
1.0130581
1.0088133
1.00557
1.0009488
0.99635397
0.99160889
0.9876759
0.98525534
0.98473285
0.98523955
0.98559819
0.98682569
0.98439831
1
1
1
1
1
1
1
1
0.99999998
0.99999905
0.99997162
0.99956947
0.99453699
0.9613956
1
1
1
1
1
1
1
1
0.99999997
0.99999901
0.99997082
0.99955994
0.99442874
0.96093959
1
1
1
1
1
1
1
1
0.99999997
0.99999899
0.99997025
0.99955257
0.99433367
0.96053082
1
1
1
1
1
1
1
1
0.99999997
0.99999897
0.99996974
0.99954582
0.99424448
0.96014887
1
1
1
1
1
1
0.99999997
0.99999895
0.99996928
0.99953998
0.99416328
0.95979731
1
1
1
1
1
0.99999997
0.99999893
0.99996892
0.99953623
0.99410038
0.95950292
1
1
1
1
0.99999997
0.99999893
0.99996872
0.99953505
0.99406075
0.95929868
1
1
0.99999997
0.99999892
0.99996868
0.99953508
0.994038
0.95915924
1
0.99999997
0.99999892
0.99996858
0.99953171
0.99399873
0.95899458
0.99999997
0.9999989
0.99996816
0.99952319
0.99392334
0.9587305
0.99999888
0.99996774
0.9995218
0.99385728
0.95858464
0.99996855
0.99954075
0.99394651
0.95889189
0.99956128
0.99417943
0.95924257
0.99436066
0.96611884
1
1
1
1
1
1
1
1
1
1
1
1
1
1
1
1
0.99942936
1.0016781
1.0053654
1.0090024
1.0119773
1.0144968
1.0173616
1.0208754
1.0249006
1.0292569
1.0340018
1.0394237
1.0452262
1.050245
1.0007892
1.0036526
1.0071229
1.0107084
1.0142816
1.0180051
1.0222913
1.0273115
1.0330485
1.0394093
1.0463122
1.053716
1.0614926
1.0692077
1.0009074
1.0040236
1.0075258
1.0108665
1.0142096
1.0178436
1.0219807
1.0266615
1.0318
1.0372988
1.0431551
1.0494499
1.0562263
1.0630198
1.0005596
1.0033749
1.0062497
1.0089521
1.011568
1.0142877
1.017227
1.0204026
1.0237695
1.0272751
1.0308226
1.0342452
1.0374008
1.0399864
1.0001982
1.0024146
1.0044691
1.0062959
1.0079664
1.0095752
1.0111848
1.0128227
1.0144553
1.0160016
1.0173711
1.0185321
1.0195066
1.0202313
1.0006186
1.0019168
1.0030061
1.0038998
1.0046585
1.0053052
1.0058873
1.0064377
1.0069364
1.0073315
1.0075792
1.0076715
1.007636
1.0074571
1.0028762
1.0032501
1.0033726
1.0034362
1.0034567
1.0034568
1.0034511
1.0034508
1.0034399
1.0033992
1.0033202
1.0031985
1.003029
1.0028077
1.0091583
1.0088606
1.00786
1.0070594
1.0063218
1.0056705
1.0051104
1.0046261
1.0041784
1.003745
1.0032929
1.0028408
1.0023932
1.0019456
1.0208381
1.0209497
1.01911
1.0173009
1.0153704
1.0134882
1.0118479
1.0105011
1.0093238
1.0082263
1.0071592
1.0061105
1.0050831
1.0040875
1.0397111
1.0428718
1.041096
1.0384033
1.0346254
1.0305936
1.0269605
1.0237919
1.0210691
1.0185708
1.0161915
1.0138443
1.0114742
1.0091239
1.0450213
1.0518693
1.0520569
1.0515694
1.0487683
1.0445185
1.0396006
1.0347784
1.0307897
1.0275693
1.024607
1.0215741
1.0182642
1.0147987
1.0356026
1.0477744
1.0541583
1.058474
1.0606662
1.0577147
1.051666
1.0452505
1.040191
1.0364944
1.0330709
1.0291137
1.0243742
1.0193401
1.0207174
1.0386527
1.044952
1.0504115
1.052755
1.0525586
1.0487003
1.0423395
1.0368882
1.0333145
1.0303759
1.0271008
1.0230204
1.0186469
1.0019423
1.0050433
1.0268473
1.0351797
1.0401045
1.0430257
1.0406764
1.0327013
1.0271349
1.0240821
1.0220246
1.019635
1.0164015
1.0134992
0.99674803
1.2323205
0.99147159
1.0139061
0.99958355
1.000072
0.99993779
0.99959522
0.99798819
0.9934663
0.98568504
0.9780072
0.97577584
0.9917165
1.044309
1.1594843
1.0136519
1.0136968
1.000136
1.000088
0.99987655
0.99932084
0.99675184
0.98939994
0.97681172
0.96287636
0.95484575
0.96319829
1.0878871
1.1213798
1.0281148
1.0117425
1.0009329
1.0000856
0.99983492
0.99913711
0.99612329
0.98782658
0.97358722
0.95575111
0.94293624
0.94408556
1.0916811
1.0932754
1.0408962
1.0105837
1.0017553
1.0001184
0.99980219
0.9989941
0.99580316
0.98759042
0.973979
0.95605874
0.94343394
0.94161641
1.0887569
1.0780645
1.0553934
1.0114779
1.0026378
1.0001912
0.99977696
0.9988854
0.99563833
0.98782523
0.97547575
0.95876725
0.9490204
0.94520387
1.0844403
1.0800685
1.0643088
1.0136045
1.0037073
1.000336
0.999767
0.99882798
0.99563599
0.98837276
0.97739656
0.96199238
0.95584115
0.95236345
1.0820598
1.0887243
1.0692615
1.0165841
1.0052092
1.0006175
0.9997902
0.99884301
0.99584249
0.98929967
0.97979922
0.96570336
0.96251447
0.96091047
1.0825431
1.0984839
1.0737224
1.0199777
1.0072973
1.001088
0.99987598
0.99894925
0.99629664
0.9906954
0.98278018
0.9701311
0.96910461
0.96933405
1.0842004
1.1054551
1.0785337
1.024611
1.0098621
1.0017759
1.0000556
0.99915165
0.99699642
0.99252961
0.98637284
0.97563347
0.97613986
0.97702793
1.0824573
1.1076504
1.0825527
1.0299493
1.0127787
1.0026827
1.0003452
0.99944515
0.9979149
0.99477102
0.99068141
0.98216425
0.98359785
0.98432163
1.0779336
1.1048577
1.0839786
1.0349113
1.0158401
1.0037719
1.0007759
0.99983306
0.99903245
0.99739625
0.99551888
0.98967841
0.99126451
0.9918173
1.0705033
1.0984584
1.0820126
1.0389676
1.0180241
1.0049595
1.0013502
1.000306
1.0002715
1.0002674
1.0006532
0.99786807
0.99907336
0.99866455
1.0632379
1.0889045
1.0769979
1.0412023
1.0195081
1.0060412
1.0020052
1.0008789
1.0016316
1.0033965
1.0059483
1.0061604
1.0067462
1.0046516
1.0550468
1.0771302
1.0691254
1.0411266
1.02027
1.007017
1.0025353
1.0015031
1.0030954
1.0068132
1.0113751
1.0148707
1.0150546
1.0133936
1.0589816
1.0081102
1.0148192
1.0000226
1.0003652
0.9999888
1.0000217
1.0000152
0.99983414
0.99872507
0.99308298
0.98081422
0.96749539
0.96323508
1.0030238
1.0031202
1.0001476
1.0001699
0.99999656
1.0000025
0.99999549
0.99997957
0.99993588
0.99985423
0.99966152
0.99911996
0.99785543
0.99599131
1.0002355
1.0000315
1.0000324
1.0000002
1.0000011
0.99999999
1.0000001
0.99999976
0.99999793
0.99999049
0.99996786
0.99991752
0.99983119
0.99969344
1
1.000002
1.0000001
1.0000002
1
1
0.99999999
0.99999998
0.99999993
0.99999978
0.99999916
0.99999701
0.99999145
0.99998153
1
1
1
1
1
1
1
1
1
0.99999999
0.99999996
0.99999991
0.99999977
0.99999945
1
1
1
1
1
1
1
1
1
1
1
1
0.99999999
0.99999998
1
1
1
1
1
1
1
1
1
1
1
1
1
1
1
1
1
1
1
1
1
1
1
1
1
1
1
1
1
1
1
1
1
1
1
1
1
1
1
1
1
1
1
1
1
1
1
1
1
1
1
1
1
1
1
1
1
1
1
1
1
1
1
1
1
1
1
1
1
1
1
1
1
1
1
1
1
1
1
1
1
1
1
1
1
1
1
1
1
1
1
1
1
1
1
1
1
1
1
1
1
1
1
1
1
1
1
1
1
1
1
1
1.0312669
1.001803
1.0002746
1.000004
1.0000001
1
1
1
1
1
1
1
1
1
1.0286924
1.0019679
1.0002491
1.0000041
1
1
1
1
1
1
1
1
1
1
1.0297558
1.0030406
1.000168
1.0000032
1
1
1
1
1
1
1
1
1
1
1
1
1
1
1
1
1
1
1
1
1
1
1
1
1
1
1
1
1
1
1
1
1
1
1
1
1
1
1
1
1
1
1
1
1
1
1
1
1
1
1
1
1
1
1
1
1
1
1
1
1
1
1
1
1
1
1
1
1
1
1
1
1
1
1
1
1
1
1
1
1
1
1
1
1
1
1
1
1
1
1
1
1
1
1
1
1
1
1
1
1
1
1
1
1
1
1
1
1
1
1
1
1
1
1
1
1
1
1
1
1
1
1
1
1
1
1
1
1
1
1
1
1
1
1
1
1
1
1
1
1
1
1
1
1
1
1
1
1
1
1
1
1
1
1
1
1
1
1
1
1
1
1
1
1
1
1
1
1
1
1
1
1
1
1
1
1
1
1
1
1
1
1
1
1
1
1
1
1
1
1
1
1
1
1
1
1
1
1
1
1
1
1
1
1
1
1
1
1
1
1
1
1
1
1
1
1
1
1
1
1
1
1
1
1
1
1
1
1
1
1
1
1
1
1
1
1
1
1
1
1
1
1
1
1
1
1
1
1
1
1
1
1
1
1
1
1
1
1
1
1
1
1
1
1
1
1
1
1
1
1
1
1
1
1
1
1
1
1
1
1
1
1
1
1
1
1
1
1
1
1
1
1
1
1
1
1
1
1
1
1
1
1
1
1
1
1
1
1
1
1
1
1
1
1
1
1
1
1
1
1
1
1
1
1
1
1
1
1
1
1
1
0.96953356
0.9609739
0.95951424
0.95843752
0.99506062
0.99444543
0.99429802
0.99407785
0.99957468
0.99954197
0.99952282
0.9994989
0.99997342
0.99997139
0.99996956
0.99996756
0.99999915
0.9999991
0.99999903
0.99999896
0.99999998
0.99999998
0.99999997
0.99999997
1
1
1
1
1
1
1
1
1
1
1
1
1
1
1
1
1
1
1
1
1
1
1
1
1
1
1
1
1
1
1
1
1
1
1
1
1
1
1
1
1
1
1
1
1
1
1
1
1
1
1
1
1
1
1
1
1
1
1
1
1
1
1
1
1
1
1
1
1
1
1
1
0.99999998
0.99999998
0.99999998
0.99999911
0.99999914
0.99997283
0.99997358
0.99958162
)
;

boundaryField
{
    Side
    {
        type            empty;
    }
    Inlet
    {
        type            inletOutlet;
        inletValue      uniform 1;
        value           nonuniform List<scalar> 
28
(
1
1
1
1
1
1
1
1
1
1
1
1
1
1
1
1
1
1
1
1
1
1
1
1
1
1
1
1
)
;
    }
    Airfoil
    {
        type            fixedValue;
        value           uniform 1;
    }
    Outlet
    {
        type            zeroGradient;
    }
    Flap
    {
        type            fixedValue;
        value           uniform 1;
    }
    procBoundary2to1
    {
        type            processor;
        value           nonuniform List<scalar> 
73
(
1
1
1
1
1
1
1
1
1
1
1
1
1
1
0.99466866
0.96189797
1
1
1
1
1
1
1
1
1
1
1
1
1
1
1
1
1
1
1
1
1
1
1
1
0.95777706
0.99387096
0.99947531
0.99996556
0.99999888
0.99999997
1
1
1
1
1
1
1
1
1
1
1
1
1
1
1
1
1
1
1
1
0.99999998
0.99999917
0.99999917
0.99997449
0.99959169
0.99959169
0.99466866
)
;
    }
    procBoundary2to3
    {
        type            processor;
        value           nonuniform List<scalar> 
113
(
1
1
1.0078387
0.98589395
1.0058858
1.003139
1.0012431
0.99987868
0.99898562
0.99843772
0.99822126
0.99848098
0.99939025
1.0007818
1.002314
1.0039134
1.0039134
1.0001624
0.996381
0.99510678
0.99510678
0.98589395
1.0003362
1.0025931
1.0032801
1.0018198
1.0001184
0.99691435
0.99256964
0.9875916
0.98331234
0.98064553
0.98035624
0.98148032
0.98203737
0.98203737
0.98093158
1
1
1
1
1
1
1
1
1
1
1
1
1
1
1
0.99999997
0.99999997
0.99999892
0.99999892
0.99997105
0.99997105
0.99960385
0.99960385
1
1
1
1
1
1
1
1
1
1
1
1
1
1
1
1.0331247
1.0019732
1.0003078
1.0000047
1.0000001
1
1
1
1
1
1
1
1
1
1
1
1
1
1
1
1
1
1
1
1
1
1
1
1
1
1
1
1
1
1
1
1
1
)
;
    }
}


// ************************************************************************* //
