/*--------------------------------*- C++ -*----------------------------------*\
| =========                 |                                                 |
| \\      /  F ield         | OpenFOAM: The Open Source CFD Toolbox           |
|  \\    /   O peration     | Version:  2206                                  |
|   \\  /    A nd           | Website:  www.openfoam.com                      |
|    \\/     M anipulation  |                                                 |
\*---------------------------------------------------------------------------*/
FoamFile
{
    version     2.0;
    format      ascii;
    arch        "LSB;label=32;scalar=64";
    class       volScalarField;
    location    "0.02";
    object      alphat;
}
// * * * * * * * * * * * * * * * * * * * * * * * * * * * * * * * * * * * * * //

dimensions      [1 -1 -1 0 0 0 0];

internalField   nonuniform List<scalar> 
1396
(
2.7772295e-08
2.7772295e-08
2.7772295e-08
2.7772295e-08
2.7772295e-08
2.7772295e-08
2.7772295e-08
2.7772295e-08
2.7772295e-08
2.7772294e-08
2.7772294e-08
2.7772292e-08
2.777229e-08
2.7772282e-08
2.7772295e-08
2.7772295e-08
2.7772295e-08
2.7772295e-08
2.7772295e-08
2.7772295e-08
2.7772295e-08
2.7772295e-08
2.7772295e-08
2.7772294e-08
2.7772294e-08
2.7772293e-08
2.777229e-08
2.7772282e-08
2.7772295e-08
2.7772295e-08
2.7772295e-08
2.7772295e-08
2.7772295e-08
2.7772295e-08
2.7772295e-08
2.7772295e-08
2.7772295e-08
2.7772294e-08
2.7772294e-08
2.7772293e-08
2.777229e-08
2.7772282e-08
2.7772295e-08
2.7772295e-08
2.7772295e-08
2.7772295e-08
2.7772295e-08
2.7772295e-08
2.7772295e-08
2.7772295e-08
2.7772295e-08
2.7772294e-08
2.7772294e-08
2.7772293e-08
2.777229e-08
2.7772283e-08
2.7772295e-08
2.7772295e-08
2.7772295e-08
2.7772295e-08
2.7772295e-08
2.7772295e-08
2.7772295e-08
2.7772295e-08
2.7772295e-08
2.7772294e-08
2.7772294e-08
2.7772293e-08
2.777229e-08
2.7772283e-08
2.7772295e-08
2.7772295e-08
2.7772295e-08
2.7772295e-08
2.7772295e-08
2.7772295e-08
2.7772295e-08
2.7772295e-08
2.7772295e-08
2.7772294e-08
2.7772294e-08
2.7772293e-08
2.777229e-08
2.7772283e-08
2.7772295e-08
2.7772295e-08
2.7772295e-08
2.7772295e-08
2.7772295e-08
2.7772295e-08
2.7772295e-08
2.7772295e-08
2.7772295e-08
2.7772294e-08
2.7772294e-08
2.7772293e-08
2.777229e-08
2.7772283e-08
2.7772295e-08
2.7772295e-08
2.7772295e-08
2.7772295e-08
2.7772295e-08
2.7772295e-08
2.7772295e-08
2.7772295e-08
2.7772295e-08
2.7772294e-08
2.7772294e-08
2.7772293e-08
2.777229e-08
2.7772283e-08
2.7772295e-08
2.7772295e-08
2.7772295e-08
2.7772295e-08
2.7772295e-08
2.7772295e-08
2.7772295e-08
2.7772295e-08
2.7772295e-08
2.7772294e-08
2.7772294e-08
2.7772293e-08
2.777229e-08
2.7772283e-08
2.7772295e-08
2.7772295e-08
2.7772295e-08
2.7772295e-08
2.7772295e-08
2.7772295e-08
2.7772295e-08
2.7772295e-08
2.7772295e-08
2.7772294e-08
2.7772294e-08
2.7772293e-08
2.777229e-08
2.7772283e-08
2.7772295e-08
2.7772295e-08
2.7772295e-08
2.7772295e-08
2.7772295e-08
2.7772295e-08
2.7772295e-08
2.7772295e-08
2.7772295e-08
2.7772294e-08
2.7772294e-08
2.7772293e-08
2.777229e-08
2.7772283e-08
2.7772295e-08
2.7772295e-08
2.7772295e-08
2.7772295e-08
2.7772295e-08
2.7772295e-08
2.7772295e-08
2.7772295e-08
2.7772295e-08
2.7772294e-08
2.7772294e-08
2.7772293e-08
2.777229e-08
2.7772283e-08
2.7772295e-08
2.7772295e-08
2.7772295e-08
2.7772295e-08
2.7772295e-08
2.7772295e-08
2.7772295e-08
2.7772295e-08
2.7772295e-08
2.7772294e-08
2.7772294e-08
2.7772293e-08
2.777229e-08
2.7772282e-08
2.7772295e-08
2.7772295e-08
2.7772295e-08
2.7772295e-08
2.7772295e-08
2.7772295e-08
2.7772295e-08
2.7772295e-08
2.7772295e-08
2.7772294e-08
2.7772294e-08
2.7772293e-08
2.777229e-08
2.7772282e-08
2.7772295e-08
2.7772295e-08
2.7772295e-08
2.7772295e-08
2.7772295e-08
2.7772295e-08
2.7772295e-08
2.7772295e-08
2.7772295e-08
2.7772294e-08
2.7772294e-08
2.7772292e-08
2.777229e-08
2.777228e-08
2.7772295e-08
2.7772295e-08
2.7772295e-08
2.7772295e-08
2.7772295e-08
2.7772295e-08
2.7772295e-08
2.7772295e-08
2.7772295e-08
2.7772294e-08
2.7772294e-08
2.7772292e-08
2.777229e-08
2.777228e-08
2.7772295e-08
2.7772295e-08
2.7772295e-08
2.7772295e-08
2.7772295e-08
2.7772295e-08
2.7772295e-08
2.7772295e-08
2.7772295e-08
2.7772294e-08
2.7772294e-08
2.7772292e-08
2.7772289e-08
2.777228e-08
2.7772295e-08
2.7772295e-08
2.7772295e-08
2.7772295e-08
2.7772295e-08
2.7772295e-08
2.7772295e-08
2.7772295e-08
2.7772295e-08
2.7772294e-08
2.7772294e-08
2.7772292e-08
2.7772289e-08
2.7772279e-08
2.7772295e-08
2.7772295e-08
2.7772295e-08
2.7772295e-08
2.7772295e-08
2.7772295e-08
2.7772295e-08
2.7772295e-08
2.7772295e-08
2.7772294e-08
2.7772294e-08
2.7772292e-08
2.7772289e-08
2.7772279e-08
2.7772295e-08
2.7772295e-08
2.7772295e-08
2.7772295e-08
2.7772295e-08
2.7772295e-08
2.7772295e-08
2.7772295e-08
2.7772295e-08
2.7772294e-08
2.7772294e-08
2.7772292e-08
2.7772289e-08
2.7772278e-08
2.7772295e-08
2.7772295e-08
2.7772295e-08
2.7772295e-08
2.7772295e-08
2.7772295e-08
2.7772295e-08
2.7772295e-08
2.7772295e-08
2.7772294e-08
2.7772293e-08
2.7772292e-08
2.7772289e-08
2.7772278e-08
2.7772295e-08
2.7772295e-08
2.7772295e-08
2.7772295e-08
2.7772295e-08
2.7772295e-08
2.7772295e-08
2.7772295e-08
2.7772295e-08
2.7772294e-08
2.7772293e-08
2.7772292e-08
2.7772289e-08
2.7772278e-08
2.7772295e-08
2.7772295e-08
2.7772295e-08
2.7772295e-08
2.7772295e-08
2.7772295e-08
2.7772295e-08
2.7772295e-08
2.7772295e-08
2.7772294e-08
2.7772293e-08
2.7772292e-08
2.7772289e-08
2.7772278e-08
2.7772295e-08
2.7772295e-08
2.7772295e-08
2.7772295e-08
2.7772295e-08
2.7772295e-08
2.7772295e-08
2.7772295e-08
2.7772295e-08
2.7772294e-08
2.7772293e-08
2.7772292e-08
2.7772289e-08
2.7772277e-08
2.7772295e-08
2.7772295e-08
2.7772295e-08
2.7772295e-08
2.7772295e-08
2.7772295e-08
2.7772295e-08
2.7772295e-08
2.7772295e-08
2.7772294e-08
2.7772293e-08
2.7772292e-08
2.7772289e-08
2.7772277e-08
2.7772295e-08
2.7772295e-08
2.7772295e-08
2.7772295e-08
2.7772295e-08
2.7772295e-08
2.7772295e-08
2.7772295e-08
2.7772295e-08
2.7772294e-08
2.7772293e-08
2.7772292e-08
2.7772289e-08
2.7772277e-08
2.7772295e-08
2.7772295e-08
2.7772295e-08
2.7772295e-08
2.7772295e-08
2.7772295e-08
2.7772295e-08
2.7772295e-08
2.7772295e-08
2.7772294e-08
2.7772293e-08
2.7772292e-08
2.7772289e-08
2.7772277e-08
2.7772295e-08
2.7772295e-08
2.7772295e-08
2.7772295e-08
2.7772295e-08
2.7772295e-08
2.7772295e-08
2.7772295e-08
2.7772295e-08
2.7772294e-08
2.7772293e-08
2.7772292e-08
2.7772289e-08
2.7772277e-08
2.7772295e-08
2.7772295e-08
2.7772295e-08
2.7772295e-08
2.7772295e-08
2.7772295e-08
2.7772295e-08
2.7772295e-08
2.7772294e-08
2.7772294e-08
2.7772293e-08
2.7772292e-08
2.7772289e-08
2.7772276e-08
2.7772295e-08
2.7772295e-08
2.7772295e-08
2.7772295e-08
2.7772295e-08
2.7772295e-08
2.7772295e-08
2.7772295e-08
2.7772294e-08
2.7772294e-08
2.7772293e-08
2.7772292e-08
2.7772289e-08
2.7772276e-08
2.7772295e-08
2.7772295e-08
2.7772295e-08
2.7772295e-08
2.7772295e-08
2.7772295e-08
2.7772295e-08
2.7772295e-08
2.7772294e-08
2.7772294e-08
2.7772293e-08
2.7772292e-08
2.7772289e-08
2.7772276e-08
2.7772295e-08
2.7772294e-08
2.7772294e-08
2.7772293e-08
2.7772292e-08
2.7772289e-08
2.7772275e-08
2.7772295e-08
2.7772295e-08
2.7772295e-08
2.7772295e-08
2.7772295e-08
2.7772295e-08
2.7772295e-08
2.7772295e-08
2.7772295e-08
2.7772295e-08
2.7772295e-08
2.7772295e-08
2.7772295e-08
2.7772295e-08
2.7772295e-08
2.7772295e-08
2.7772295e-08
2.7772295e-08
2.7772295e-08
2.7772295e-08
2.7772295e-08
2.7772295e-08
2.7772295e-08
2.7772295e-08
2.7772295e-08
2.7772295e-08
2.7772295e-08
2.7772295e-08
2.7772295e-08
2.7772295e-08
2.7772295e-08
2.7772295e-08
2.7772295e-08
2.7772295e-08
2.7772295e-08
2.7772295e-08
2.7772295e-08
2.7772295e-08
2.7772295e-08
2.7772295e-08
2.7772295e-08
2.7772295e-08
2.7772295e-08
2.7772295e-08
2.7772295e-08
2.7772295e-08
2.7772295e-08
2.7772295e-08
2.7772295e-08
2.7772295e-08
2.7772295e-08
2.7772295e-08
2.7772295e-08
2.7772295e-08
2.7772295e-08
2.7772295e-08
2.7772295e-08
2.7772295e-08
2.7772295e-08
2.7772295e-08
2.7772295e-08
2.7772295e-08
2.7772295e-08
2.7772295e-08
2.7772295e-08
2.7772295e-08
2.7772295e-08
2.7772295e-08
2.7772295e-08
2.7772295e-08
2.7772295e-08
2.7772295e-08
2.7772295e-08
2.7772295e-08
2.7772295e-08
2.7772295e-08
2.7772295e-08
2.7772295e-08
2.7772295e-08
2.7772295e-08
2.7772295e-08
2.7772295e-08
2.7772295e-08
2.7772295e-08
2.7772295e-08
2.7772295e-08
2.7772295e-08
2.7772295e-08
2.7772295e-08
2.7772295e-08
2.7772295e-08
2.7772295e-08
2.7772295e-08
2.7772295e-08
2.7772295e-08
2.7772295e-08
2.7772295e-08
2.7772295e-08
2.7772295e-08
2.7772295e-08
2.7772295e-08
2.7772295e-08
2.7772295e-08
2.7772295e-08
2.7772295e-08
2.7772295e-08
2.7772295e-08
2.7772295e-08
2.7772295e-08
2.7772295e-08
2.7772295e-08
2.7772295e-08
2.7772295e-08
2.7772295e-08
2.7772295e-08
2.7772295e-08
2.7772295e-08
2.7772295e-08
2.7772295e-08
2.7772295e-08
2.7772295e-08
2.7772295e-08
2.7772295e-08
2.7772295e-08
2.7772295e-08
2.7772295e-08
2.7772294e-08
2.7772294e-08
2.7772294e-08
2.7772294e-08
2.7772294e-08
2.7772294e-08
2.7772294e-08
2.7772294e-08
2.7772294e-08
2.7772294e-08
2.7772294e-08
2.7772294e-08
2.7772294e-08
2.7772294e-08
2.7772294e-08
2.7772294e-08
2.7772294e-08
2.7772294e-08
2.7772294e-08
2.7772294e-08
2.7772294e-08
2.7772294e-08
2.7772293e-08
2.7772293e-08
2.7772293e-08
2.7772293e-08
2.7772293e-08
2.7772293e-08
2.7772292e-08
2.7772292e-08
2.7772292e-08
2.7772292e-08
2.7772292e-08
2.7772292e-08
2.7772292e-08
2.7772292e-08
2.7772292e-08
2.7772292e-08
2.7772292e-08
2.7772292e-08
2.7772292e-08
2.7772292e-08
2.777229e-08
2.777229e-08
2.777229e-08
2.777229e-08
2.7772289e-08
2.7772289e-08
2.7772289e-08
2.7772289e-08
2.7772289e-08
2.7772289e-08
2.7772289e-08
2.7772289e-08
2.7772289e-08
2.7772289e-08
2.7772281e-08
2.7772281e-08
2.777228e-08
2.777228e-08
2.7772279e-08
2.7772279e-08
2.7772279e-08
2.7772279e-08
2.7772278e-08
2.7772278e-08
2.7772278e-08
2.7772278e-08
2.7772278e-08
2.7772278e-08
2.7772275e-08
2.7772276e-08
2.7772276e-08
2.7772277e-08
2.7772289e-08
2.7772289e-08
2.7772289e-08
2.7772289e-08
2.7772292e-08
2.7772292e-08
2.7772292e-08
2.7772292e-08
2.7772293e-08
2.7772293e-08
2.7772293e-08
2.7772293e-08
2.7772294e-08
2.7772294e-08
2.7772294e-08
2.7772294e-08
2.7772294e-08
2.7772294e-08
2.7772295e-08
2.7772295e-08
2.7772295e-08
2.7772295e-08
2.7772295e-08
2.7772295e-08
2.7772295e-08
2.7772295e-08
2.7772295e-08
2.7772295e-08
2.7772295e-08
2.7772295e-08
2.7772295e-08
2.7772295e-08
2.7772295e-08
2.7772295e-08
2.7772295e-08
2.7772295e-08
2.7772295e-08
2.7772295e-08
2.7772295e-08
2.7772295e-08
2.7772295e-08
2.7772295e-08
2.7772295e-08
2.7772295e-08
2.7772295e-08
2.7772295e-08
2.7772295e-08
2.7772295e-08
2.7772295e-08
2.7772295e-08
2.7772295e-08
2.7772295e-08
2.777225e-08
2.7772242e-08
2.7772233e-08
2.777222e-08
2.7772204e-08
2.7772181e-08
2.7772148e-08
2.77721e-08
2.7772023e-08
2.7771929e-08
2.7772851e-08
2.7873128e-08
2.789882e-08
4.2062533e-08
2.7772248e-08
2.777224e-08
2.777223e-08
2.7772217e-08
2.77722e-08
2.7772176e-08
2.7772142e-08
2.7772092e-08
2.7772012e-08
2.777192e-08
2.7772961e-08
2.7868939e-08
2.7899084e-08
4.1368917e-08
2.7772246e-08
2.7772238e-08
2.7772228e-08
2.7772214e-08
2.7772196e-08
2.7772171e-08
2.7772136e-08
2.7772084e-08
2.7772001e-08
2.7771936e-08
2.7772989e-08
2.7860905e-08
2.7897108e-08
4.0502032e-08
2.7772244e-08
2.7772236e-08
2.7772225e-08
2.7772211e-08
2.7772192e-08
2.7772167e-08
2.777213e-08
2.7772076e-08
2.7771989e-08
2.7771899e-08
2.7773031e-08
2.7850861e-08
2.788717e-08
3.967309e-08
2.7839952e-08
2.7869868e-08
3.8875514e-08
4.2392449e-08
4.293173e-08
4.3395795e-08
4.3898409e-08
4.4441645e-08
4.5034716e-08
4.5656024e-08
4.6264494e-08
4.6912445e-08
4.7673142e-08
4.8594609e-08
4.9686539e-08
5.0929721e-08
5.1885102e-08
2.7875986e-08
2.788624e-08
2.7885243e-08
2.7883595e-08
2.7879759e-08
2.7872894e-08
2.7862576e-08
2.7850863e-08
2.7837674e-08
2.7820126e-08
2.7794068e-08
2.7753882e-08
2.7688176e-08
2.7572772e-08
2.7870312e-08
2.7876297e-08
2.7881118e-08
2.7886026e-08
2.7891002e-08
2.7895905e-08
2.7900344e-08
2.790427e-08
2.7908292e-08
2.7912939e-08
2.7918233e-08
2.7923504e-08
2.7926363e-08
2.7920351e-08
2.777252e-08
2.7772558e-08
2.7772544e-08
2.7772524e-08
2.7772493e-08
2.7772446e-08
2.7772383e-08
2.7772308e-08
2.777223e-08
2.7772131e-08
2.7771995e-08
2.7771797e-08
2.7771495e-08
2.7771068e-08
2.7771947e-08
2.777195e-08
2.7771955e-08
2.7771961e-08
2.7771968e-08
2.7771975e-08
2.7771983e-08
2.7771986e-08
2.7771995e-08
2.7772004e-08
2.7772014e-08
2.7772024e-08
2.777203e-08
2.7772027e-08
2.7772031e-08
2.7772032e-08
2.7772035e-08
2.7772038e-08
2.7772043e-08
2.7772048e-08
2.7772053e-08
2.7772056e-08
2.7772062e-08
2.7772069e-08
2.7772076e-08
2.7772083e-08
2.7772091e-08
2.7772099e-08
2.7772105e-08
2.7772106e-08
2.7772108e-08
2.7772111e-08
2.7772114e-08
2.7772117e-08
2.7772121e-08
2.7772123e-08
2.7772128e-08
2.7772133e-08
2.7772138e-08
2.7772143e-08
2.7772149e-08
2.7772155e-08
2.7772152e-08
2.7772153e-08
2.7772154e-08
2.7772156e-08
2.7772159e-08
2.7772161e-08
2.7772164e-08
2.7772166e-08
2.777217e-08
2.7772173e-08
2.7772177e-08
2.7772181e-08
2.7772185e-08
2.777219e-08
2.7772184e-08
2.7772184e-08
2.7772186e-08
2.7772187e-08
2.7772189e-08
2.7772191e-08
2.7772193e-08
2.7772195e-08
2.7772197e-08
2.77722e-08
2.7772203e-08
2.7772206e-08
2.777221e-08
2.7772213e-08
2.7772206e-08
2.7772206e-08
2.7772207e-08
2.7772209e-08
2.777221e-08
2.7772212e-08
2.7772214e-08
2.7772215e-08
2.7772217e-08
2.7772219e-08
2.7772222e-08
2.7772224e-08
2.7772227e-08
2.7772229e-08
2.7772222e-08
2.7772223e-08
2.7772223e-08
2.7772224e-08
2.7772225e-08
2.7772227e-08
2.7772228e-08
2.777223e-08
2.7772231e-08
2.7772233e-08
2.7772235e-08
2.7772237e-08
2.7772239e-08
2.7772241e-08
2.7772234e-08
2.7772235e-08
2.7772235e-08
2.7772236e-08
2.7772237e-08
2.7772238e-08
2.7772239e-08
2.7772241e-08
2.7772242e-08
2.7772243e-08
2.7772245e-08
2.7772247e-08
2.7772249e-08
2.777225e-08
2.7772244e-08
2.7772244e-08
2.7772244e-08
2.7772245e-08
2.7772246e-08
2.7772247e-08
2.7772248e-08
2.7772249e-08
2.777225e-08
2.7772251e-08
2.7772253e-08
2.7772254e-08
2.7772256e-08
2.7772257e-08
2.7772251e-08
2.7772251e-08
2.7772252e-08
2.7772252e-08
2.7772253e-08
2.7772254e-08
2.7772255e-08
2.7772256e-08
2.7772257e-08
2.7772258e-08
2.7772259e-08
2.777226e-08
2.7772261e-08
2.7772263e-08
2.7772262e-08
2.7772264e-08
2.7772265e-08
2.7772266e-08
2.7772267e-08
2.7772268e-08
2.7772268e-08
2.7772268e-08
2.7772268e-08
2.7772268e-08
2.7772267e-08
2.7772266e-08
2.7772265e-08
2.7772264e-08
2.7772257e-08
2.7772259e-08
2.7772261e-08
2.7772262e-08
2.7772263e-08
2.7772264e-08
2.7772264e-08
2.7772264e-08
2.7772264e-08
2.7772263e-08
2.7772262e-08
2.7772262e-08
2.777226e-08
2.7772259e-08
2.777225e-08
2.7772252e-08
2.7772254e-08
2.7772256e-08
2.7772257e-08
2.7772258e-08
2.7772258e-08
2.7772258e-08
2.7772258e-08
2.7772257e-08
2.7772256e-08
2.7772256e-08
2.7772254e-08
2.7772252e-08
2.7772241e-08
2.7772244e-08
2.7772246e-08
2.7772248e-08
2.777225e-08
2.7772251e-08
2.7772251e-08
2.7772251e-08
2.7772251e-08
2.777225e-08
2.7772249e-08
2.7772248e-08
2.7772245e-08
2.7772244e-08
2.7772229e-08
2.7772232e-08
2.7772235e-08
2.7772238e-08
2.777224e-08
2.7772241e-08
2.7772242e-08
2.7772241e-08
2.7772241e-08
2.777224e-08
2.7772239e-08
2.7772237e-08
2.7772234e-08
2.7772232e-08
2.7772213e-08
2.7772217e-08
2.777222e-08
2.7772224e-08
2.7772227e-08
2.7772228e-08
2.7772228e-08
2.7772228e-08
2.7772228e-08
2.7772226e-08
2.7772224e-08
2.7772223e-08
2.7772219e-08
2.7772217e-08
2.7772189e-08
2.7772194e-08
2.7772199e-08
2.7772204e-08
2.7772208e-08
2.7772209e-08
2.777221e-08
2.777221e-08
2.777221e-08
2.7772207e-08
2.7772205e-08
2.7772202e-08
2.7772198e-08
2.7772195e-08
2.7772154e-08
2.7772161e-08
2.7772168e-08
2.7772174e-08
2.777218e-08
2.7772183e-08
2.7772184e-08
2.7772184e-08
2.7772183e-08
2.7772179e-08
2.7772175e-08
2.7772171e-08
2.7772165e-08
2.7772162e-08
2.7772098e-08
2.7772108e-08
2.7772115e-08
2.777212e-08
2.777212e-08
2.7772114e-08
2.7772109e-08
2.7772107e-08
2.7772111e-08
2.7772117e-08
2.777212e-08
2.7772119e-08
2.7772113e-08
2.7772109e-08
2.7772017e-08
2.7772058e-08
2.777216e-08
2.7772345e-08
2.7772606e-08
2.7772847e-08
2.7773006e-08
2.7773068e-08
2.7772939e-08
2.7772626e-08
2.7772347e-08
2.7772187e-08
2.7772093e-08
2.7772045e-08
2.7771053e-08
2.7769814e-08
2.7767225e-08
2.7762169e-08
2.7755949e-08
2.775061e-08
2.7747224e-08
2.774586e-08
2.7748681e-08
2.7755787e-08
2.7762482e-08
2.7766603e-08
2.7768928e-08
2.7770239e-08
2.7868284e-08
2.7899056e-08
2.7958304e-08
2.8067388e-08
2.817821e-08
2.8266199e-08
2.832229e-08
2.8346009e-08
2.829667e-08
2.8174963e-08
2.804843e-08
2.7963917e-08
2.7917113e-08
2.7889714e-08
2.7680246e-08
2.7376526e-08
2.6749976e-08
2.5666664e-08
2.4753246e-08
2.4151337e-08
2.3734011e-08
2.3583983e-08
2.3910641e-08
2.4684015e-08
2.5765953e-08
2.6595042e-08
2.7111634e-08
2.7420458e-08
4.6765764e-08
5.2147445e-08
6.0463302e-08
7.3076388e-08
8.3599723e-08
9.0989247e-08
9.5182801e-08
9.5834487e-08
9.1443992e-08
8.2073124e-08
7.0951314e-08
6.1767082e-08
5.5676595e-08
5.114757e-08
2.7772261e-08
2.7772255e-08
2.7772248e-08
2.7772238e-08
2.7772225e-08
2.7772208e-08
2.7772183e-08
2.7772146e-08
2.7772087e-08
2.7772004e-08
2.7772085e-08
2.788508e-08
2.7825869e-08
4.5841276e-08
2.7772259e-08
2.7772253e-08
2.7772246e-08
2.7772236e-08
2.7772222e-08
2.7772204e-08
2.7772178e-08
2.7772139e-08
2.7772077e-08
2.7772006e-08
2.77725e-08
2.7881015e-08
2.7889388e-08
4.4251563e-08
2.7772258e-08
2.7772252e-08
2.7772244e-08
2.7772233e-08
2.777222e-08
2.7772201e-08
2.7772174e-08
2.7772133e-08
2.7772069e-08
2.7771998e-08
2.7772667e-08
2.7870858e-08
2.790978e-08
4.2883966e-08
2.7772257e-08
2.777225e-08
2.7772242e-08
2.7772231e-08
2.7772217e-08
2.7772197e-08
2.7772169e-08
2.7772127e-08
2.777206e-08
2.7771985e-08
2.7772704e-08
2.7860875e-08
2.7910506e-08
4.1820458e-08
2.7772255e-08
2.7772249e-08
2.777224e-08
2.7772229e-08
2.7772214e-08
2.7772194e-08
2.7772165e-08
2.7772122e-08
2.7772053e-08
2.7771973e-08
2.7772692e-08
2.7852227e-08
2.7904637e-08
4.0957102e-08
2.7772254e-08
2.7772247e-08
2.7772238e-08
2.7772227e-08
2.7772212e-08
2.7772191e-08
2.7772161e-08
2.7772116e-08
2.7772046e-08
2.7771961e-08
2.7772661e-08
2.7844369e-08
2.7896789e-08
4.0205091e-08
2.7772253e-08
2.7772246e-08
2.7772237e-08
2.7772225e-08
2.7772209e-08
2.7772188e-08
2.7772158e-08
2.7772112e-08
2.7772039e-08
2.7771951e-08
2.7772615e-08
2.783712e-08
2.7887405e-08
3.9573898e-08
2.7772252e-08
2.7772245e-08
2.7772236e-08
2.7772224e-08
2.7772208e-08
2.7772185e-08
2.7772154e-08
2.7772107e-08
2.7772033e-08
2.7771941e-08
2.7772561e-08
2.7830171e-08
2.7877695e-08
3.8988171e-08
2.7772251e-08
2.7772244e-08
2.7772235e-08
2.7772222e-08
2.7772206e-08
2.7772184e-08
2.7772152e-08
2.7772105e-08
2.777203e-08
2.7771937e-08
2.7772496e-08
2.782333e-08
2.7866757e-08
3.8464431e-08
2.777225e-08
2.7772243e-08
2.7772233e-08
2.7772221e-08
2.7772204e-08
2.7772182e-08
2.777215e-08
2.7772101e-08
2.7772025e-08
2.7771956e-08
2.7772391e-08
2.7816701e-08
2.7855058e-08
3.7981114e-08
2.777225e-08
2.7772242e-08
2.7772232e-08
2.777222e-08
2.7772203e-08
2.777218e-08
2.7772147e-08
2.7772098e-08
2.777202e-08
2.7771918e-08
2.7772364e-08
2.7810253e-08
2.7842585e-08
3.752743e-08
2.7772249e-08
2.7772241e-08
2.7772231e-08
2.7772218e-08
2.7772201e-08
2.7772178e-08
2.7772145e-08
2.7772095e-08
2.7772016e-08
2.7771904e-08
2.7772251e-08
2.7804349e-08
2.782942e-08
3.7101803e-08
2.7772248e-08
2.777224e-08
2.7772231e-08
2.7772218e-08
2.77722e-08
2.7772177e-08
2.7772143e-08
2.7772092e-08
2.7772012e-08
2.77719e-08
2.7772229e-08
2.7798224e-08
2.7814923e-08
3.6706509e-08
2.7772248e-08
2.777224e-08
2.777223e-08
2.7772217e-08
2.77722e-08
2.7772176e-08
2.7772142e-08
2.7772091e-08
2.777201e-08
2.7771895e-08
2.7771942e-08
2.7787593e-08
2.7801766e-08
3.6293833e-08
2.7772247e-08
2.7772239e-08
2.7772229e-08
2.7772216e-08
2.7772198e-08
2.7772174e-08
2.7772139e-08
2.7772087e-08
2.7772004e-08
2.7771868e-08
2.7771715e-08
2.7775594e-08
2.779751e-08
3.5948054e-08
2.7772246e-08
2.7772238e-08
2.7772227e-08
2.7772214e-08
2.7772195e-08
2.777217e-08
2.7772135e-08
2.7772082e-08
2.7771997e-08
2.7771848e-08
2.7771457e-08
2.7766536e-08
2.7762962e-08
3.5301109e-08
2.7772245e-08
2.7772236e-08
2.7772226e-08
2.7772212e-08
2.7772193e-08
2.7772167e-08
2.7772131e-08
2.7772076e-08
2.7771989e-08
2.777183e-08
2.7771076e-08
2.7754334e-08
2.7732296e-08
3.4654478e-08
2.7772244e-08
2.7772235e-08
2.7772224e-08
2.777221e-08
2.7772191e-08
2.7772164e-08
2.7772127e-08
2.7772071e-08
2.7771982e-08
2.7771808e-08
2.7770574e-08
2.7740866e-08
2.7702123e-08
3.4042178e-08
)
;

boundaryField
{
    Side
    {
        type            empty;
    }
    Inlet
    {
        type            calculated;
        value           nonuniform List<scalar> 
49
(
3.9592188e-07
3.9592188e-07
3.9592188e-07
3.9592188e-07
3.9592188e-07
3.9592188e-07
3.9592188e-07
3.9592188e-07
3.9592188e-07
3.9592188e-07
3.9592188e-07
3.9592188e-07
3.9592188e-07
3.9592188e-07
2.7772295e-08
2.7772295e-08
2.7772295e-08
2.7772295e-08
2.7772295e-08
2.7772295e-08
2.7772295e-08
2.7772295e-08
2.7772295e-08
2.7772295e-08
2.7772295e-08
2.7772295e-08
2.7772295e-08
2.7772295e-08
2.7772295e-08
2.7772295e-08
2.7772295e-08
3.9592188e-07
3.9592188e-07
3.9592188e-07
3.9592188e-07
3.9592188e-07
3.9592188e-07
3.9592188e-07
3.9592188e-07
3.9592188e-07
3.9592188e-07
3.9592188e-07
3.9592188e-07
3.9592188e-07
3.9592188e-07
3.9592188e-07
3.9592188e-07
3.9592188e-07
3.9592188e-07
)
;
    }
    Airfoil
    {
        type            compressible::alphatWallFunction;
        value           nonuniform List<scalar> 
51
(
1.9095434e-05
1.8692038e-05
1.830026e-05
1.7928197e-05
1.7580888e-05
1.9491061e-05
1.9616173e-05
1.9752527e-05
1.9907148e-05
2.0080674e-05
2.0273582e-05
2.0485445e-05
2.0716374e-05
2.0976912e-05
2.1277236e-05
2.1622523e-05
2.200972e-05
2.2427693e-05
2.2876726e-05
2.3155606e-05
2.3700986e-05
2.4376338e-05
2.5867535e-05
2.6802243e-05
2.7254107e-05
2.7406123e-05
2.7474306e-05
2.7156402e-05
2.5883454e-05
2.4714266e-05
2.424807e-05
2.413085e-05
2.3871001e-05
2.1889264e-05
2.1290339e-05
2.0801342e-05
2.0390392e-05
2.0044356e-05
1.9743617e-05
1.9485042e-05
1.9252045e-05
1.9044822e-05
1.8858154e-05
1.8689737e-05
1.8537295e-05
1.8399214e-05
1.827612e-05
1.7953164e-05
1.7670974e-05
1.7409045e-05
1.7166147e-05
)
;
    }
    Outlet
    {
        type            zeroGradient;
    }
    Flap
    {
        type            compressible::alphatWallFunction;
        value           nonuniform List<scalar> 0();
    }
    procBoundary0to1
    {
        type            processor;
        value           nonuniform List<scalar> 
58
(
2.7772295e-08
2.7772295e-08
2.7772295e-08
2.7772295e-08
2.7772295e-08
2.7772295e-08
2.7772295e-08
2.7772295e-08
2.7772295e-08
2.7772294e-08
2.7772294e-08
2.7772293e-08
2.7772292e-08
2.7772288e-08
2.7772275e-08
2.7772275e-08
2.7772288e-08
2.7772292e-08
2.7772293e-08
2.7772294e-08
2.7772294e-08
2.7772295e-08
2.7772295e-08
2.7772295e-08
2.7772295e-08
2.7772295e-08
2.7772295e-08
2.7772295e-08
2.7772295e-08
2.7772243e-08
2.7772234e-08
2.7772223e-08
2.7772208e-08
2.7772189e-08
2.7772162e-08
2.7772125e-08
2.7772068e-08
2.7771979e-08
2.7771872e-08
2.7773057e-08
2.7773057e-08
2.7827516e-08
2.7840364e-08
3.795409e-08
2.7772243e-08
2.7772234e-08
2.7772223e-08
2.7772208e-08
2.7772189e-08
2.7772162e-08
2.7772124e-08
2.7772067e-08
2.7771976e-08
2.7771784e-08
2.7769972e-08
2.7726799e-08
2.7671827e-08
3.3420391e-08
)
;
    }
}


// ************************************************************************* //
