/*--------------------------------*- C++ -*----------------------------------*\
| =========                 |                                                 |
| \\      /  F ield         | OpenFOAM: The Open Source CFD Toolbox           |
|  \\    /   O peration     | Version:  2206                                  |
|   \\  /    A nd           | Website:  www.openfoam.com                      |
|    \\/     M anipulation  |                                                 |
\*---------------------------------------------------------------------------*/
FoamFile
{
    version     2.0;
    format      ascii;
    arch        "LSB;label=32;scalar=64";
    class       volScalarField;
    location    "0.02";
    object      nut;
}
// * * * * * * * * * * * * * * * * * * * * * * * * * * * * * * * * * * * * * //

dimensions      [0 2 -1 0 0 0 0];

internalField   nonuniform List<scalar> 
1396
(
2.7772322e-08
2.7772322e-08
2.7772322e-08
2.7772322e-08
2.7772322e-08
2.7772322e-08
2.7772322e-08
2.7772321e-08
2.7772321e-08
2.7772321e-08
2.777232e-08
2.7772319e-08
2.7772316e-08
2.7772308e-08
2.7772322e-08
2.7772322e-08
2.7772322e-08
2.7772322e-08
2.7772322e-08
2.7772322e-08
2.7772322e-08
2.7772321e-08
2.7772321e-08
2.7772321e-08
2.777232e-08
2.7772319e-08
2.7772317e-08
2.7772309e-08
2.7772322e-08
2.7772322e-08
2.7772322e-08
2.7772322e-08
2.7772322e-08
2.7772322e-08
2.7772322e-08
2.7772321e-08
2.7772321e-08
2.7772321e-08
2.777232e-08
2.7772319e-08
2.7772317e-08
2.7772309e-08
2.7772322e-08
2.7772322e-08
2.7772322e-08
2.7772322e-08
2.7772322e-08
2.7772322e-08
2.7772322e-08
2.7772321e-08
2.7772321e-08
2.7772321e-08
2.777232e-08
2.7772319e-08
2.7772317e-08
2.7772309e-08
2.7772322e-08
2.7772322e-08
2.7772322e-08
2.7772322e-08
2.7772322e-08
2.7772322e-08
2.7772322e-08
2.7772321e-08
2.7772321e-08
2.7772321e-08
2.777232e-08
2.7772319e-08
2.7772317e-08
2.777231e-08
2.7772322e-08
2.7772322e-08
2.7772322e-08
2.7772322e-08
2.7772322e-08
2.7772322e-08
2.7772322e-08
2.7772321e-08
2.7772321e-08
2.7772321e-08
2.777232e-08
2.7772319e-08
2.7772317e-08
2.777231e-08
2.7772322e-08
2.7772322e-08
2.7772322e-08
2.7772322e-08
2.7772322e-08
2.7772322e-08
2.7772322e-08
2.7772321e-08
2.7772321e-08
2.7772321e-08
2.777232e-08
2.7772319e-08
2.7772317e-08
2.777231e-08
2.7772322e-08
2.7772322e-08
2.7772322e-08
2.7772322e-08
2.7772322e-08
2.7772322e-08
2.7772322e-08
2.7772321e-08
2.7772321e-08
2.7772321e-08
2.777232e-08
2.7772319e-08
2.7772317e-08
2.777231e-08
2.7772322e-08
2.7772322e-08
2.7772322e-08
2.7772322e-08
2.7772322e-08
2.7772322e-08
2.7772322e-08
2.7772321e-08
2.7772321e-08
2.7772321e-08
2.777232e-08
2.7772319e-08
2.7772317e-08
2.777231e-08
2.7772322e-08
2.7772322e-08
2.7772322e-08
2.7772322e-08
2.7772322e-08
2.7772322e-08
2.7772322e-08
2.7772321e-08
2.7772321e-08
2.7772321e-08
2.777232e-08
2.7772319e-08
2.7772317e-08
2.777231e-08
2.7772322e-08
2.7772322e-08
2.7772322e-08
2.7772322e-08
2.7772322e-08
2.7772322e-08
2.7772322e-08
2.7772321e-08
2.7772321e-08
2.7772321e-08
2.777232e-08
2.7772319e-08
2.7772317e-08
2.7772309e-08
2.7772322e-08
2.7772322e-08
2.7772322e-08
2.7772322e-08
2.7772322e-08
2.7772322e-08
2.7772322e-08
2.7772321e-08
2.7772321e-08
2.7772321e-08
2.777232e-08
2.7772319e-08
2.7772317e-08
2.7772309e-08
2.7772322e-08
2.7772322e-08
2.7772322e-08
2.7772322e-08
2.7772322e-08
2.7772322e-08
2.7772322e-08
2.7772321e-08
2.7772321e-08
2.7772321e-08
2.777232e-08
2.7772319e-08
2.7772317e-08
2.7772309e-08
2.7772322e-08
2.7772322e-08
2.7772322e-08
2.7772322e-08
2.7772322e-08
2.7772322e-08
2.7772322e-08
2.7772321e-08
2.7772321e-08
2.7772321e-08
2.777232e-08
2.7772319e-08
2.7772317e-08
2.7772309e-08
2.7772322e-08
2.7772322e-08
2.7772322e-08
2.7772322e-08
2.7772322e-08
2.7772322e-08
2.7772322e-08
2.7772321e-08
2.7772321e-08
2.7772321e-08
2.777232e-08
2.7772319e-08
2.7772316e-08
2.7772307e-08
2.7772322e-08
2.7772322e-08
2.7772322e-08
2.7772322e-08
2.7772322e-08
2.7772322e-08
2.7772322e-08
2.7772321e-08
2.7772321e-08
2.7772321e-08
2.777232e-08
2.7772319e-08
2.7772316e-08
2.7772307e-08
2.7772322e-08
2.7772322e-08
2.7772322e-08
2.7772322e-08
2.7772322e-08
2.7772322e-08
2.7772322e-08
2.7772321e-08
2.7772321e-08
2.7772321e-08
2.777232e-08
2.7772319e-08
2.7772316e-08
2.7772306e-08
2.7772322e-08
2.7772322e-08
2.7772322e-08
2.7772322e-08
2.7772322e-08
2.7772322e-08
2.7772322e-08
2.7772321e-08
2.7772321e-08
2.7772321e-08
2.777232e-08
2.7772319e-08
2.7772316e-08
2.7772306e-08
2.7772322e-08
2.7772322e-08
2.7772322e-08
2.7772322e-08
2.7772322e-08
2.7772322e-08
2.7772322e-08
2.7772321e-08
2.7772321e-08
2.7772321e-08
2.777232e-08
2.7772319e-08
2.7772316e-08
2.7772305e-08
2.7772322e-08
2.7772322e-08
2.7772322e-08
2.7772322e-08
2.7772322e-08
2.7772322e-08
2.7772322e-08
2.7772321e-08
2.7772321e-08
2.7772321e-08
2.777232e-08
2.7772319e-08
2.7772316e-08
2.7772305e-08
2.7772322e-08
2.7772322e-08
2.7772322e-08
2.7772322e-08
2.7772322e-08
2.7772322e-08
2.7772322e-08
2.7772321e-08
2.7772321e-08
2.7772321e-08
2.777232e-08
2.7772319e-08
2.7772316e-08
2.7772305e-08
2.7772322e-08
2.7772322e-08
2.7772322e-08
2.7772322e-08
2.7772322e-08
2.7772322e-08
2.7772322e-08
2.7772321e-08
2.7772321e-08
2.7772321e-08
2.777232e-08
2.7772319e-08
2.7772316e-08
2.7772304e-08
2.7772322e-08
2.7772322e-08
2.7772322e-08
2.7772322e-08
2.7772322e-08
2.7772322e-08
2.7772322e-08
2.7772321e-08
2.7772321e-08
2.7772321e-08
2.777232e-08
2.7772319e-08
2.7772316e-08
2.7772304e-08
2.7772322e-08
2.7772322e-08
2.7772322e-08
2.7772322e-08
2.7772322e-08
2.7772322e-08
2.7772322e-08
2.7772321e-08
2.7772321e-08
2.7772321e-08
2.777232e-08
2.7772319e-08
2.7772316e-08
2.7772304e-08
2.7772322e-08
2.7772322e-08
2.7772322e-08
2.7772322e-08
2.7772322e-08
2.7772322e-08
2.7772322e-08
2.7772321e-08
2.7772321e-08
2.7772321e-08
2.777232e-08
2.7772319e-08
2.7772315e-08
2.7772304e-08
2.7772322e-08
2.7772322e-08
2.7772322e-08
2.7772322e-08
2.7772322e-08
2.7772322e-08
2.7772322e-08
2.7772321e-08
2.7772321e-08
2.7772321e-08
2.777232e-08
2.7772319e-08
2.7772315e-08
2.7772304e-08
2.7772322e-08
2.7772322e-08
2.7772322e-08
2.7772322e-08
2.7772322e-08
2.7772322e-08
2.7772322e-08
2.7772321e-08
2.7772321e-08
2.7772321e-08
2.777232e-08
2.7772319e-08
2.7772315e-08
2.7772303e-08
2.7772322e-08
2.7772322e-08
2.7772322e-08
2.7772322e-08
2.7772322e-08
2.7772322e-08
2.7772322e-08
2.7772321e-08
2.7772321e-08
2.7772321e-08
2.777232e-08
2.7772319e-08
2.7772315e-08
2.7772303e-08
2.7772322e-08
2.7772322e-08
2.7772322e-08
2.7772322e-08
2.7772322e-08
2.7772322e-08
2.7772322e-08
2.7772321e-08
2.7772321e-08
2.7772321e-08
2.777232e-08
2.7772319e-08
2.7772315e-08
2.7772303e-08
2.7772322e-08
2.7772322e-08
2.7772322e-08
2.7772322e-08
2.7772322e-08
2.7772322e-08
2.7772322e-08
2.7772321e-08
2.7772321e-08
2.7772321e-08
2.777232e-08
2.7772319e-08
2.7772315e-08
2.7772302e-08
2.7772322e-08
2.7772322e-08
2.7772322e-08
2.7772322e-08
2.7772322e-08
2.7772322e-08
2.7772322e-08
2.7772321e-08
2.7772321e-08
2.7772321e-08
2.777232e-08
2.7772319e-08
2.7772315e-08
2.7772302e-08
2.7772321e-08
2.7772321e-08
2.7772321e-08
2.777232e-08
2.7772319e-08
2.7772315e-08
2.7772302e-08
2.7772322e-08
2.7772322e-08
2.7772322e-08
2.7772322e-08
2.7772322e-08
2.7772322e-08
2.7772322e-08
2.7772322e-08
2.7772322e-08
2.7772322e-08
2.7772322e-08
2.7772322e-08
2.7772322e-08
2.7772322e-08
2.7772322e-08
2.7772322e-08
2.7772322e-08
2.7772322e-08
2.7772322e-08
2.7772322e-08
2.7772322e-08
2.7772322e-08
2.7772322e-08
2.7772322e-08
2.7772322e-08
2.7772322e-08
2.7772322e-08
2.7772322e-08
2.7772322e-08
2.7772322e-08
2.7772322e-08
2.7772322e-08
2.7772322e-08
2.7772322e-08
2.7772322e-08
2.7772322e-08
2.7772322e-08
2.7772322e-08
2.7772322e-08
2.7772322e-08
2.7772322e-08
2.7772322e-08
2.7772322e-08
2.7772322e-08
2.7772322e-08
2.7772322e-08
2.7772322e-08
2.7772322e-08
2.7772322e-08
2.7772322e-08
2.7772322e-08
2.7772322e-08
2.7772322e-08
2.7772322e-08
2.7772322e-08
2.7772322e-08
2.7772322e-08
2.7772322e-08
2.7772322e-08
2.7772322e-08
2.7772322e-08
2.7772322e-08
2.7772322e-08
2.7772322e-08
2.7772322e-08
2.7772322e-08
2.7772322e-08
2.7772322e-08
2.7772322e-08
2.7772322e-08
2.7772322e-08
2.7772322e-08
2.7772322e-08
2.7772322e-08
2.7772322e-08
2.7772322e-08
2.7772322e-08
2.7772322e-08
2.7772322e-08
2.7772322e-08
2.7772322e-08
2.7772322e-08
2.7772322e-08
2.7772322e-08
2.7772322e-08
2.7772322e-08
2.7772322e-08
2.7772322e-08
2.7772322e-08
2.7772322e-08
2.7772322e-08
2.7772322e-08
2.7772322e-08
2.7772322e-08
2.7772322e-08
2.7772322e-08
2.7772322e-08
2.7772322e-08
2.7772321e-08
2.7772321e-08
2.7772321e-08
2.7772321e-08
2.7772321e-08
2.7772321e-08
2.7772321e-08
2.7772321e-08
2.7772321e-08
2.7772321e-08
2.7772321e-08
2.7772321e-08
2.7772321e-08
2.7772321e-08
2.7772321e-08
2.7772321e-08
2.7772321e-08
2.7772321e-08
2.7772321e-08
2.7772321e-08
2.7772321e-08
2.7772321e-08
2.7772321e-08
2.7772321e-08
2.7772321e-08
2.7772321e-08
2.7772321e-08
2.7772321e-08
2.7772321e-08
2.7772321e-08
2.7772321e-08
2.7772321e-08
2.7772321e-08
2.7772321e-08
2.7772321e-08
2.7772321e-08
2.7772321e-08
2.7772321e-08
2.7772321e-08
2.7772321e-08
2.7772321e-08
2.7772321e-08
2.777232e-08
2.777232e-08
2.777232e-08
2.777232e-08
2.777232e-08
2.777232e-08
2.777232e-08
2.777232e-08
2.777232e-08
2.777232e-08
2.777232e-08
2.777232e-08
2.777232e-08
2.777232e-08
2.7772319e-08
2.7772319e-08
2.7772319e-08
2.7772319e-08
2.7772319e-08
2.7772319e-08
2.7772319e-08
2.7772319e-08
2.7772319e-08
2.7772319e-08
2.7772319e-08
2.7772319e-08
2.7772319e-08
2.7772319e-08
2.7772316e-08
2.7772316e-08
2.7772316e-08
2.7772316e-08
2.7772316e-08
2.7772316e-08
2.7772316e-08
2.7772316e-08
2.7772316e-08
2.7772316e-08
2.7772316e-08
2.7772316e-08
2.7772316e-08
2.7772316e-08
2.7772308e-08
2.7772307e-08
2.7772307e-08
2.7772306e-08
2.7772306e-08
2.7772306e-08
2.7772305e-08
2.7772305e-08
2.7772305e-08
2.7772305e-08
2.7772304e-08
2.7772304e-08
2.7772304e-08
2.7772304e-08
2.7772302e-08
2.7772303e-08
2.7772303e-08
2.7772304e-08
2.7772315e-08
2.7772315e-08
2.7772315e-08
2.7772315e-08
2.7772319e-08
2.7772319e-08
2.7772319e-08
2.7772319e-08
2.777232e-08
2.777232e-08
2.777232e-08
2.777232e-08
2.7772321e-08
2.7772321e-08
2.7772321e-08
2.7772321e-08
2.7772321e-08
2.7772321e-08
2.7772321e-08
2.7772321e-08
2.7772321e-08
2.7772321e-08
2.7772321e-08
2.7772321e-08
2.7772322e-08
2.7772322e-08
2.7772322e-08
2.7772322e-08
2.7772322e-08
2.7772322e-08
2.7772322e-08
2.7772322e-08
2.7772322e-08
2.7772322e-08
2.7772322e-08
2.7772322e-08
2.7772322e-08
2.7772322e-08
2.7772322e-08
2.7772322e-08
2.7772322e-08
2.7772322e-08
2.7772322e-08
2.7772322e-08
2.7772322e-08
2.7772322e-08
2.7772322e-08
2.7772322e-08
2.7772322e-08
2.7772322e-08
2.7772322e-08
2.7772322e-08
2.7772277e-08
2.7772269e-08
2.7772259e-08
2.7772247e-08
2.777223e-08
2.7772207e-08
2.7772175e-08
2.7772127e-08
2.777205e-08
2.7771955e-08
2.7772852e-08
2.7869575e-08
2.7880499e-08
4.0725384e-08
2.7772275e-08
2.7772267e-08
2.7772257e-08
2.7772244e-08
2.7772227e-08
2.7772203e-08
2.7772169e-08
2.7772119e-08
2.7772039e-08
2.7771946e-08
2.7772959e-08
2.7865503e-08
2.7881384e-08
4.0204574e-08
2.7772273e-08
2.7772265e-08
2.7772254e-08
2.7772241e-08
2.7772223e-08
2.7772198e-08
2.7772163e-08
2.777211e-08
2.7772027e-08
2.7771962e-08
2.7772986e-08
2.7857684e-08
2.7881058e-08
3.9543753e-08
2.7772271e-08
2.7772262e-08
2.7772252e-08
2.7772238e-08
2.7772219e-08
2.7772193e-08
2.7772157e-08
2.7772102e-08
2.7772016e-08
2.7771925e-08
2.7773026e-08
2.7847906e-08
2.7873276e-08
3.8905457e-08
2.7837258e-08
2.7858822e-08
3.8292808e-08
4.0928533e-08
4.1351685e-08
4.1705674e-08
4.2090475e-08
4.2504544e-08
4.2953845e-08
4.3421888e-08
4.388195e-08
4.4373803e-08
4.4949369e-08
4.5640111e-08
4.644766e-08
4.7352051e-08
4.7992417e-08
2.7858779e-08
2.78679e-08
2.7866671e-08
2.7864882e-08
2.786105e-08
2.7854389e-08
2.7844539e-08
2.78335e-08
2.7821178e-08
2.7804802e-08
2.778044e-08
2.7742769e-08
2.7681339e-08
2.757486e-08
2.786696e-08
2.7872747e-08
2.7877406e-08
2.7882154e-08
2.7886965e-08
2.7891705e-08
2.7896001e-08
2.789981e-08
2.7903717e-08
2.7908233e-08
2.7913369e-08
2.7918457e-08
2.7921142e-08
2.7915248e-08
2.7772526e-08
2.7772563e-08
2.7772549e-08
2.7772529e-08
2.7772499e-08
2.7772454e-08
2.7772392e-08
2.7772318e-08
2.7772242e-08
2.7772145e-08
2.7772012e-08
2.7771817e-08
2.7771522e-08
2.7771105e-08
2.7771973e-08
2.7771975e-08
2.7771981e-08
2.7771987e-08
2.7771994e-08
2.7772001e-08
2.7772008e-08
2.7772012e-08
2.7772021e-08
2.777203e-08
2.777204e-08
2.777205e-08
2.7772056e-08
2.7772053e-08
2.7772057e-08
2.7772058e-08
2.7772061e-08
2.7772065e-08
2.7772069e-08
2.7772074e-08
2.7772079e-08
2.7772082e-08
2.7772089e-08
2.7772095e-08
2.7772102e-08
2.777211e-08
2.7772118e-08
2.7772126e-08
2.7772132e-08
2.7772133e-08
2.7772135e-08
2.7772137e-08
2.777214e-08
2.7772144e-08
2.7772148e-08
2.777215e-08
2.7772155e-08
2.7772159e-08
2.7772165e-08
2.777217e-08
2.7772176e-08
2.7772181e-08
2.7772179e-08
2.777218e-08
2.7772181e-08
2.7772183e-08
2.7772185e-08
2.7772188e-08
2.7772191e-08
2.7772193e-08
2.7772196e-08
2.77722e-08
2.7772204e-08
2.7772208e-08
2.7772212e-08
2.7772216e-08
2.7772211e-08
2.7772211e-08
2.7772212e-08
2.7772214e-08
2.7772215e-08
2.7772218e-08
2.777222e-08
2.7772221e-08
2.7772224e-08
2.7772227e-08
2.777223e-08
2.7772233e-08
2.7772236e-08
2.777224e-08
2.7772233e-08
2.7772233e-08
2.7772234e-08
2.7772235e-08
2.7772237e-08
2.7772238e-08
2.777224e-08
2.7772242e-08
2.7772243e-08
2.7772246e-08
2.7772248e-08
2.7772251e-08
2.7772253e-08
2.7772256e-08
2.7772249e-08
2.7772249e-08
2.777225e-08
2.7772251e-08
2.7772252e-08
2.7772253e-08
2.7772255e-08
2.7772257e-08
2.7772258e-08
2.777226e-08
2.7772262e-08
2.7772264e-08
2.7772266e-08
2.7772268e-08
2.7772261e-08
2.7772261e-08
2.7772262e-08
2.7772263e-08
2.7772264e-08
2.7772265e-08
2.7772266e-08
2.7772267e-08
2.7772268e-08
2.777227e-08
2.7772272e-08
2.7772273e-08
2.7772275e-08
2.7772277e-08
2.777227e-08
2.7772271e-08
2.7772271e-08
2.7772272e-08
2.7772273e-08
2.7772274e-08
2.7772275e-08
2.7772276e-08
2.7772277e-08
2.7772278e-08
2.7772279e-08
2.7772281e-08
2.7772282e-08
2.7772284e-08
2.7772278e-08
2.7772278e-08
2.7772278e-08
2.7772279e-08
2.777228e-08
2.777228e-08
2.7772281e-08
2.7772282e-08
2.7772283e-08
2.7772284e-08
2.7772285e-08
2.7772287e-08
2.7772288e-08
2.7772289e-08
2.7772289e-08
2.7772291e-08
2.7772292e-08
2.7772293e-08
2.7772294e-08
2.7772295e-08
2.7772295e-08
2.7772295e-08
2.7772295e-08
2.7772294e-08
2.7772294e-08
2.7772293e-08
2.7772292e-08
2.7772291e-08
2.7772284e-08
2.7772286e-08
2.7772287e-08
2.7772288e-08
2.777229e-08
2.777229e-08
2.7772291e-08
2.777229e-08
2.777229e-08
2.777229e-08
2.7772289e-08
2.7772288e-08
2.7772287e-08
2.7772286e-08
2.7772277e-08
2.7772279e-08
2.7772281e-08
2.7772282e-08
2.7772284e-08
2.7772285e-08
2.7772285e-08
2.7772285e-08
2.7772285e-08
2.7772284e-08
2.7772283e-08
2.7772282e-08
2.777228e-08
2.7772279e-08
2.7772268e-08
2.777227e-08
2.7772273e-08
2.7772275e-08
2.7772276e-08
2.7772277e-08
2.7772278e-08
2.7772278e-08
2.7772277e-08
2.7772276e-08
2.7772275e-08
2.7772274e-08
2.7772272e-08
2.777227e-08
2.7772256e-08
2.7772259e-08
2.7772262e-08
2.7772264e-08
2.7772267e-08
2.7772268e-08
2.7772268e-08
2.7772268e-08
2.7772268e-08
2.7772267e-08
2.7772265e-08
2.7772264e-08
2.7772261e-08
2.7772259e-08
2.7772239e-08
2.7772243e-08
2.7772247e-08
2.777225e-08
2.7772253e-08
2.7772254e-08
2.7772255e-08
2.7772255e-08
2.7772255e-08
2.7772253e-08
2.7772251e-08
2.7772249e-08
2.7772246e-08
2.7772243e-08
2.7772216e-08
2.7772221e-08
2.7772226e-08
2.777223e-08
2.7772234e-08
2.7772236e-08
2.7772237e-08
2.7772237e-08
2.7772236e-08
2.7772234e-08
2.7772231e-08
2.7772229e-08
2.7772224e-08
2.7772221e-08
2.7772181e-08
2.7772188e-08
2.7772194e-08
2.7772201e-08
2.7772207e-08
2.7772209e-08
2.7772211e-08
2.7772211e-08
2.777221e-08
2.7772206e-08
2.7772202e-08
2.7772198e-08
2.7772192e-08
2.7772188e-08
2.7772125e-08
2.7772134e-08
2.7772142e-08
2.7772146e-08
2.7772146e-08
2.7772141e-08
2.7772136e-08
2.7772134e-08
2.7772138e-08
2.7772144e-08
2.7772147e-08
2.7772146e-08
2.7772139e-08
2.7772135e-08
2.7772043e-08
2.7772084e-08
2.7772185e-08
2.7772368e-08
2.7772624e-08
2.7772861e-08
2.7773017e-08
2.7773077e-08
2.7772951e-08
2.7772644e-08
2.7772369e-08
2.7772212e-08
2.7772119e-08
2.7772071e-08
2.7771088e-08
2.776987e-08
2.776733e-08
2.7762399e-08
2.7756354e-08
2.7751178e-08
2.7747894e-08
2.7746574e-08
2.7749308e-08
2.7756194e-08
2.7762706e-08
2.7766726e-08
2.7769003e-08
2.7770289e-08
2.7865484e-08
2.7895322e-08
2.7952479e-08
2.8056817e-08
2.8162056e-08
2.8245359e-08
2.8298682e-08
2.832118e-08
2.8274287e-08
2.8159169e-08
2.803859e-08
2.7957588e-08
2.7912575e-08
2.7886139e-08
2.76754e-08
2.7388381e-08
2.680387e-08
2.5812444e-08
2.4985988e-08
2.4441948e-08
2.4058817e-08
2.3922515e-08
2.4220081e-08
2.4910631e-08
2.5898996e-08
2.6664996e-08
2.7145771e-08
2.7434974e-08
4.4123568e-08
4.8261731e-08
5.4331168e-08
6.2840415e-08
6.9578577e-08
7.4222426e-08
7.6802345e-08
7.7088639e-08
7.432926e-08
6.8595942e-08
6.1438082e-08
5.5101982e-08
5.0713209e-08
4.7294972e-08
2.7772287e-08
2.7772282e-08
2.7772274e-08
2.7772265e-08
2.7772252e-08
2.7772234e-08
2.777221e-08
2.7772172e-08
2.7772113e-08
2.777203e-08
2.7772101e-08
2.788119e-08
2.7811621e-08
4.3583396e-08
2.7772286e-08
2.777228e-08
2.7772272e-08
2.7772262e-08
2.7772249e-08
2.7772231e-08
2.7772205e-08
2.7772166e-08
2.7772104e-08
2.7772032e-08
2.7772508e-08
2.7877326e-08
2.7871442e-08
4.2404611e-08
2.7772285e-08
2.7772278e-08
2.777227e-08
2.777226e-08
2.7772246e-08
2.7772227e-08
2.77722e-08
2.777216e-08
2.7772095e-08
2.7772024e-08
2.7772672e-08
2.786756e-08
2.7891775e-08
4.1351257e-08
2.7772283e-08
2.7772277e-08
2.7772268e-08
2.7772258e-08
2.7772243e-08
2.7772224e-08
2.7772196e-08
2.7772154e-08
2.7772087e-08
2.7772011e-08
2.7772709e-08
2.7857888e-08
2.7893428e-08
4.0523677e-08
2.7772282e-08
2.7772275e-08
2.7772267e-08
2.7772256e-08
2.7772241e-08
2.7772221e-08
2.7772192e-08
2.7772148e-08
2.7772079e-08
2.7771999e-08
2.7772697e-08
2.7849497e-08
2.7888658e-08
3.9846671e-08
2.7772281e-08
2.7772274e-08
2.7772265e-08
2.7772254e-08
2.7772238e-08
2.7772217e-08
2.7772188e-08
2.7772143e-08
2.7772072e-08
2.7771987e-08
2.7772667e-08
2.7841879e-08
2.7882056e-08
3.9257207e-08
2.777228e-08
2.7772272e-08
2.7772263e-08
2.7772252e-08
2.7772236e-08
2.7772215e-08
2.7772184e-08
2.7772138e-08
2.7772066e-08
2.7771977e-08
2.7772621e-08
2.7834856e-08
2.7873969e-08
3.8760487e-08
2.7772279e-08
2.7772272e-08
2.7772263e-08
2.7772251e-08
2.7772235e-08
2.7772212e-08
2.7772181e-08
2.7772134e-08
2.777206e-08
2.7771967e-08
2.7772568e-08
2.7828126e-08
2.7865708e-08
3.830252e-08
2.7772278e-08
2.7772271e-08
2.7772261e-08
2.7772249e-08
2.7772233e-08
2.7772211e-08
2.7772179e-08
2.7772132e-08
2.7772057e-08
2.7771963e-08
2.7772504e-08
2.7821503e-08
2.7856285e-08
3.7891105e-08
2.7772277e-08
2.7772269e-08
2.777226e-08
2.7772248e-08
2.7772231e-08
2.7772208e-08
2.7772176e-08
2.7772128e-08
2.7772052e-08
2.7771981e-08
2.7772402e-08
2.781508e-08
2.7846172e-08
3.7511093e-08
2.7772276e-08
2.7772269e-08
2.7772259e-08
2.7772246e-08
2.7772229e-08
2.7772206e-08
2.7772174e-08
2.7772124e-08
2.7772047e-08
2.7771944e-08
2.7772374e-08
2.7808824e-08
2.7835364e-08
3.7153526e-08
2.7772276e-08
2.7772268e-08
2.7772258e-08
2.7772245e-08
2.7772228e-08
2.7772205e-08
2.7772171e-08
2.7772121e-08
2.7772042e-08
2.777193e-08
2.7772264e-08
2.7803077e-08
2.7823958e-08
3.6817503e-08
2.7772275e-08
2.7772267e-08
2.7772257e-08
2.7772244e-08
2.7772227e-08
2.7772203e-08
2.777217e-08
2.7772119e-08
2.7772039e-08
2.7771926e-08
2.7772239e-08
2.7796897e-08
2.7811511e-08
3.6505831e-08
2.7772275e-08
2.7772267e-08
2.7772257e-08
2.7772244e-08
2.7772226e-08
2.7772202e-08
2.7772168e-08
2.7772118e-08
2.7772037e-08
2.7771921e-08
2.7771963e-08
2.7787113e-08
2.7799653e-08
3.6170997e-08
2.7772274e-08
2.7772266e-08
2.7772255e-08
2.7772242e-08
2.7772224e-08
2.77722e-08
2.7772166e-08
2.7772114e-08
2.7772031e-08
2.7771894e-08
2.7771739e-08
2.7775532e-08
2.779722e-08
3.5935896e-08
2.7772273e-08
2.7772264e-08
2.7772254e-08
2.777224e-08
2.7772222e-08
2.7772197e-08
2.7772161e-08
2.7772108e-08
2.7772023e-08
2.7771874e-08
2.7771488e-08
2.7766723e-08
2.7766667e-08
3.5429226e-08
2.7772271e-08
2.7772263e-08
2.7772252e-08
2.7772238e-08
2.777222e-08
2.7772194e-08
2.7772158e-08
2.7772103e-08
2.7772016e-08
2.7771857e-08
2.7771116e-08
2.775492e-08
2.7739681e-08
3.4914745e-08
2.777227e-08
2.7772262e-08
2.7772251e-08
2.7772236e-08
2.7772217e-08
2.7772191e-08
2.7772154e-08
2.7772098e-08
2.7772008e-08
2.7771835e-08
2.7770625e-08
2.7741896e-08
2.7713172e-08
3.4427641e-08
)
;

boundaryField
{
    Side
    {
        type            empty;
    }
    Inlet
    {
        type            inletOutlet;
        inletValue      uniform 3.9592226e-07;
        value           nonuniform List<scalar> 
49
(
3.9592226e-07
3.9592226e-07
3.9592226e-07
3.9592226e-07
3.9592226e-07
3.9592226e-07
3.9592226e-07
3.9592226e-07
3.9592226e-07
3.9592226e-07
3.9592226e-07
3.9592226e-07
3.9592226e-07
3.9592226e-07
2.7772322e-08
2.7772322e-08
2.7772322e-08
2.7772322e-08
2.7772322e-08
2.7772322e-08
2.7772322e-08
2.7772322e-08
2.7772322e-08
2.7772322e-08
2.7772322e-08
2.7772322e-08
2.7772322e-08
2.7772322e-08
2.7772322e-08
2.7772322e-08
2.7772322e-08
3.9592226e-07
3.9592226e-07
3.9592226e-07
3.9592226e-07
3.9592226e-07
3.9592226e-07
3.9592226e-07
3.9592226e-07
3.9592226e-07
3.9592226e-07
3.9592226e-07
3.9592226e-07
3.9592226e-07
3.9592226e-07
3.9592226e-07
3.9592226e-07
3.9592226e-07
3.9592226e-07
)
;
    }
    Airfoil
    {
        type            nutUSpaldingWallFunction;
        value           nonuniform List<scalar> 
51
(
1.5443976e-05
1.5201721e-05
1.4983174e-05
1.4776603e-05
1.4588553e-05
1.569465e-05
1.5741002e-05
1.5796944e-05
1.586454e-05
1.5942596e-05
1.6030767e-05
1.6130651e-05
1.6246132e-05
1.6380439e-05
1.6533442e-05
1.6703636e-05
1.6888483e-05
1.7085625e-05
1.7316974e-05
1.7962787e-05
1.7884192e-05
1.7663679e-05
1.7752832e-05
1.7666193e-05
1.7515489e-05
1.7375083e-05
1.7356332e-05
1.7389864e-05
1.7151131e-05
1.7107146e-05
1.7442477e-05
1.7854213e-05
1.802144e-05
1.7200633e-05
1.6924432e-05
1.6692852e-05
1.6489953e-05
1.6314169e-05
1.6160148e-05
1.6026336e-05
1.59081e-05
1.580339e-05
1.5710625e-05
1.5628906e-05
1.5557226e-05
1.5494492e-05
1.5441036e-05
1.5241712e-05
1.5092233e-05
1.4956461e-05
1.4833407e-05
)
;
    }
    Outlet
    {
        type            zeroGradient;
    }
    Flap
    {
        type            nutUSpaldingWallFunction;
        value           nonuniform List<scalar> 0();
    }
    procBoundary0to1
    {
        type            processor;
        value           nonuniform List<scalar> 
58
(
2.7772322e-08
2.7772322e-08
2.7772322e-08
2.7772322e-08
2.7772322e-08
2.7772322e-08
2.7772322e-08
2.7772322e-08
2.7772321e-08
2.7772321e-08
2.7772321e-08
2.777232e-08
2.7772319e-08
2.7772315e-08
2.7772302e-08
2.7772302e-08
2.7772315e-08
2.7772319e-08
2.777232e-08
2.7772321e-08
2.7772321e-08
2.7772321e-08
2.7772322e-08
2.7772322e-08
2.7772322e-08
2.7772322e-08
2.7772322e-08
2.7772322e-08
2.7772322e-08
2.7772269e-08
2.7772261e-08
2.7772249e-08
2.7772235e-08
2.7772216e-08
2.7772189e-08
2.7772151e-08
2.7772095e-08
2.7772006e-08
2.7771898e-08
2.7773052e-08
2.7773052e-08
2.7824555e-08
2.7834045e-08
3.757425e-08
2.7772269e-08
2.7772261e-08
2.7772249e-08
2.7772235e-08
2.7772215e-08
2.7772189e-08
2.7772151e-08
2.7772094e-08
2.7772002e-08
2.7771812e-08
2.7770037e-08
2.7728304e-08
2.7686532e-08
3.3924452e-08
)
;
    }
}


// ************************************************************************* //
