/*--------------------------------*- C++ -*----------------------------------*\
| =========                 |                                                 |
| \\      /  F ield         | OpenFOAM: The Open Source CFD Toolbox           |
|  \\    /   O peration     | Version:  2206                                  |
|   \\  /    A nd           | Website:  www.openfoam.com                      |
|    \\/     M anipulation  |                                                 |
\*---------------------------------------------------------------------------*/
FoamFile
{
    version     2.0;
    format      ascii;
    arch        "LSB;label=32;scalar=64";
    class       volScalarField;
    location    "0.02";
    object      nuTilda;
}
// * * * * * * * * * * * * * * * * * * * * * * * * * * * * * * * * * * * * * //

dimensions      [0 2 -1 0 0 0 0];

internalField   nonuniform List<scalar> 
1396
(
3.9592226e-07
3.9592226e-07
3.9592226e-07
3.9592226e-07
3.9592226e-07
3.9592226e-07
3.9592226e-07
3.9592226e-07
3.9592226e-07
3.9592226e-07
3.9592225e-07
3.9592225e-07
3.9592224e-07
3.9592221e-07
3.9592226e-07
3.9592226e-07
3.9592226e-07
3.9592226e-07
3.9592226e-07
3.9592226e-07
3.9592226e-07
3.9592226e-07
3.9592226e-07
3.9592226e-07
3.9592225e-07
3.9592225e-07
3.9592224e-07
3.9592221e-07
3.9592226e-07
3.9592226e-07
3.9592226e-07
3.9592226e-07
3.9592226e-07
3.9592226e-07
3.9592226e-07
3.9592226e-07
3.9592226e-07
3.9592226e-07
3.9592225e-07
3.9592225e-07
3.9592224e-07
3.9592221e-07
3.9592226e-07
3.9592226e-07
3.9592226e-07
3.9592226e-07
3.9592226e-07
3.9592226e-07
3.9592226e-07
3.9592226e-07
3.9592226e-07
3.9592226e-07
3.9592225e-07
3.9592225e-07
3.9592224e-07
3.9592221e-07
3.9592226e-07
3.9592226e-07
3.9592226e-07
3.9592226e-07
3.9592226e-07
3.9592226e-07
3.9592226e-07
3.9592226e-07
3.9592226e-07
3.9592226e-07
3.9592225e-07
3.9592225e-07
3.9592224e-07
3.9592221e-07
3.9592226e-07
3.9592226e-07
3.9592226e-07
3.9592226e-07
3.9592226e-07
3.9592226e-07
3.9592226e-07
3.9592226e-07
3.9592226e-07
3.9592226e-07
3.9592225e-07
3.9592225e-07
3.9592224e-07
3.9592221e-07
3.9592226e-07
3.9592226e-07
3.9592226e-07
3.9592226e-07
3.9592226e-07
3.9592226e-07
3.9592226e-07
3.9592226e-07
3.9592226e-07
3.9592226e-07
3.9592225e-07
3.9592225e-07
3.9592224e-07
3.9592221e-07
3.9592226e-07
3.9592226e-07
3.9592226e-07
3.9592226e-07
3.9592226e-07
3.9592226e-07
3.9592226e-07
3.9592226e-07
3.9592226e-07
3.9592226e-07
3.9592225e-07
3.9592225e-07
3.9592224e-07
3.9592221e-07
3.9592226e-07
3.9592226e-07
3.9592226e-07
3.9592226e-07
3.9592226e-07
3.9592226e-07
3.9592226e-07
3.9592226e-07
3.9592226e-07
3.9592226e-07
3.9592225e-07
3.9592225e-07
3.9592224e-07
3.9592221e-07
3.9592226e-07
3.9592226e-07
3.9592226e-07
3.9592226e-07
3.9592226e-07
3.9592226e-07
3.9592226e-07
3.9592226e-07
3.9592226e-07
3.9592226e-07
3.9592225e-07
3.9592225e-07
3.9592224e-07
3.9592221e-07
3.9592226e-07
3.9592226e-07
3.9592226e-07
3.9592226e-07
3.9592226e-07
3.9592226e-07
3.9592226e-07
3.9592226e-07
3.9592226e-07
3.9592226e-07
3.9592225e-07
3.9592225e-07
3.9592224e-07
3.9592221e-07
3.9592226e-07
3.9592226e-07
3.9592226e-07
3.9592226e-07
3.9592226e-07
3.9592226e-07
3.9592226e-07
3.9592226e-07
3.9592226e-07
3.9592226e-07
3.9592225e-07
3.9592225e-07
3.9592224e-07
3.9592221e-07
3.9592226e-07
3.9592226e-07
3.9592226e-07
3.9592226e-07
3.9592226e-07
3.9592226e-07
3.9592226e-07
3.9592226e-07
3.9592226e-07
3.9592226e-07
3.9592225e-07
3.9592225e-07
3.9592224e-07
3.9592221e-07
3.9592226e-07
3.9592226e-07
3.9592226e-07
3.9592226e-07
3.9592226e-07
3.9592226e-07
3.9592226e-07
3.9592226e-07
3.9592226e-07
3.9592226e-07
3.9592225e-07
3.9592225e-07
3.9592224e-07
3.9592221e-07
3.9592226e-07
3.9592226e-07
3.9592226e-07
3.9592226e-07
3.9592226e-07
3.9592226e-07
3.9592226e-07
3.9592226e-07
3.9592226e-07
3.9592226e-07
3.9592225e-07
3.9592225e-07
3.9592224e-07
3.959222e-07
3.9592226e-07
3.9592226e-07
3.9592226e-07
3.9592226e-07
3.9592226e-07
3.9592226e-07
3.9592226e-07
3.9592226e-07
3.9592226e-07
3.9592226e-07
3.9592225e-07
3.9592225e-07
3.9592224e-07
3.959222e-07
3.9592226e-07
3.9592226e-07
3.9592226e-07
3.9592226e-07
3.9592226e-07
3.9592226e-07
3.9592226e-07
3.9592226e-07
3.9592226e-07
3.9592226e-07
3.9592225e-07
3.9592225e-07
3.9592224e-07
3.959222e-07
3.9592226e-07
3.9592226e-07
3.9592226e-07
3.9592226e-07
3.9592226e-07
3.9592226e-07
3.9592226e-07
3.9592226e-07
3.9592226e-07
3.9592226e-07
3.9592225e-07
3.9592225e-07
3.9592224e-07
3.959222e-07
3.9592226e-07
3.9592226e-07
3.9592226e-07
3.9592226e-07
3.9592226e-07
3.9592226e-07
3.9592226e-07
3.9592226e-07
3.9592226e-07
3.9592226e-07
3.9592225e-07
3.9592225e-07
3.9592224e-07
3.959222e-07
3.9592226e-07
3.9592226e-07
3.9592226e-07
3.9592226e-07
3.9592226e-07
3.9592226e-07
3.9592226e-07
3.9592226e-07
3.9592226e-07
3.9592226e-07
3.9592225e-07
3.9592225e-07
3.9592224e-07
3.959222e-07
3.9592226e-07
3.9592226e-07
3.9592226e-07
3.9592226e-07
3.9592226e-07
3.9592226e-07
3.9592226e-07
3.9592226e-07
3.9592226e-07
3.9592226e-07
3.9592225e-07
3.9592225e-07
3.9592224e-07
3.9592219e-07
3.9592226e-07
3.9592226e-07
3.9592226e-07
3.9592226e-07
3.9592226e-07
3.9592226e-07
3.9592226e-07
3.9592226e-07
3.9592226e-07
3.9592225e-07
3.9592225e-07
3.9592225e-07
3.9592224e-07
3.9592219e-07
3.9592226e-07
3.9592226e-07
3.9592226e-07
3.9592226e-07
3.9592226e-07
3.9592226e-07
3.9592226e-07
3.9592226e-07
3.9592226e-07
3.9592225e-07
3.9592225e-07
3.9592225e-07
3.9592224e-07
3.9592219e-07
3.9592226e-07
3.9592226e-07
3.9592226e-07
3.9592226e-07
3.9592226e-07
3.9592226e-07
3.9592226e-07
3.9592226e-07
3.9592226e-07
3.9592225e-07
3.9592225e-07
3.9592225e-07
3.9592224e-07
3.9592219e-07
3.9592226e-07
3.9592226e-07
3.9592226e-07
3.9592226e-07
3.9592226e-07
3.9592226e-07
3.9592226e-07
3.9592226e-07
3.9592226e-07
3.9592225e-07
3.9592225e-07
3.9592225e-07
3.9592224e-07
3.9592219e-07
3.9592226e-07
3.9592226e-07
3.9592226e-07
3.9592226e-07
3.9592226e-07
3.9592226e-07
3.9592226e-07
3.9592226e-07
3.9592226e-07
3.9592225e-07
3.9592225e-07
3.9592225e-07
3.9592224e-07
3.9592219e-07
3.9592226e-07
3.9592226e-07
3.9592226e-07
3.9592226e-07
3.9592226e-07
3.9592226e-07
3.9592226e-07
3.9592226e-07
3.9592226e-07
3.9592225e-07
3.9592225e-07
3.9592225e-07
3.9592223e-07
3.9592219e-07
3.9592226e-07
3.9592226e-07
3.9592226e-07
3.9592226e-07
3.9592226e-07
3.9592226e-07
3.9592226e-07
3.9592226e-07
3.9592226e-07
3.9592225e-07
3.9592225e-07
3.9592225e-07
3.9592223e-07
3.9592219e-07
3.9592226e-07
3.9592226e-07
3.9592226e-07
3.9592226e-07
3.9592226e-07
3.9592226e-07
3.9592226e-07
3.9592226e-07
3.9592226e-07
3.9592225e-07
3.9592225e-07
3.9592225e-07
3.9592223e-07
3.9592219e-07
3.9592226e-07
3.9592226e-07
3.9592226e-07
3.9592226e-07
3.9592226e-07
3.9592226e-07
3.9592226e-07
3.9592226e-07
3.9592226e-07
3.9592225e-07
3.9592225e-07
3.9592225e-07
3.9592223e-07
3.9592219e-07
3.9592226e-07
3.9592226e-07
3.9592226e-07
3.9592226e-07
3.9592226e-07
3.9592226e-07
3.9592226e-07
3.9592226e-07
3.9592226e-07
3.9592225e-07
3.9592225e-07
3.9592225e-07
3.9592223e-07
3.9592218e-07
3.9592226e-07
3.9592226e-07
3.9592225e-07
3.9592225e-07
3.9592225e-07
3.9592223e-07
3.9592218e-07
3.9592226e-07
3.9592226e-07
3.9592226e-07
3.9592226e-07
3.9592226e-07
3.9592226e-07
3.9592226e-07
3.9592226e-07
3.9592226e-07
3.9592226e-07
3.9592226e-07
3.9592226e-07
3.9592226e-07
3.9592226e-07
3.9592226e-07
3.9592226e-07
3.9592226e-07
3.9592226e-07
3.9592226e-07
3.9592226e-07
3.9592226e-07
3.9592226e-07
3.9592226e-07
3.9592226e-07
3.9592226e-07
3.9592226e-07
3.9592226e-07
3.9592226e-07
3.9592226e-07
3.9592226e-07
3.9592226e-07
3.9592226e-07
3.9592226e-07
3.9592226e-07
3.9592226e-07
3.9592226e-07
3.9592226e-07
3.9592226e-07
3.9592226e-07
3.9592226e-07
3.9592226e-07
3.9592226e-07
3.9592226e-07
3.9592226e-07
3.9592226e-07
3.9592226e-07
3.9592226e-07
3.9592226e-07
3.9592226e-07
3.9592226e-07
3.9592226e-07
3.9592226e-07
3.9592226e-07
3.9592226e-07
3.9592226e-07
3.9592226e-07
3.9592226e-07
3.9592226e-07
3.9592226e-07
3.9592226e-07
3.9592226e-07
3.9592226e-07
3.9592226e-07
3.9592226e-07
3.9592226e-07
3.9592226e-07
3.9592226e-07
3.9592226e-07
3.9592226e-07
3.9592226e-07
3.9592226e-07
3.9592226e-07
3.9592226e-07
3.9592226e-07
3.9592226e-07
3.9592226e-07
3.9592226e-07
3.9592226e-07
3.9592226e-07
3.9592226e-07
3.9592226e-07
3.9592226e-07
3.9592226e-07
3.9592226e-07
3.9592226e-07
3.9592226e-07
3.9592226e-07
3.9592226e-07
3.9592226e-07
3.9592226e-07
3.9592226e-07
3.9592226e-07
3.9592226e-07
3.9592226e-07
3.9592226e-07
3.9592226e-07
3.9592226e-07
3.9592226e-07
3.9592226e-07
3.9592226e-07
3.9592226e-07
3.9592226e-07
3.9592226e-07
3.9592226e-07
3.9592226e-07
3.9592226e-07
3.9592226e-07
3.9592226e-07
3.9592226e-07
3.9592226e-07
3.9592226e-07
3.9592226e-07
3.9592226e-07
3.9592226e-07
3.9592226e-07
3.9592226e-07
3.9592226e-07
3.9592226e-07
3.9592226e-07
3.9592226e-07
3.9592226e-07
3.9592226e-07
3.9592226e-07
3.9592226e-07
3.9592226e-07
3.9592226e-07
3.9592226e-07
3.9592226e-07
3.9592226e-07
3.9592226e-07
3.9592226e-07
3.9592226e-07
3.9592226e-07
3.9592226e-07
3.9592226e-07
3.9592225e-07
3.9592225e-07
3.9592225e-07
3.9592225e-07
3.9592225e-07
3.9592225e-07
3.9592225e-07
3.9592225e-07
3.9592225e-07
3.9592225e-07
3.9592225e-07
3.9592225e-07
3.9592225e-07
3.9592225e-07
3.9592225e-07
3.9592225e-07
3.9592225e-07
3.9592225e-07
3.9592225e-07
3.9592225e-07
3.9592225e-07
3.9592225e-07
3.9592225e-07
3.9592225e-07
3.9592225e-07
3.9592225e-07
3.9592225e-07
3.9592225e-07
3.9592225e-07
3.9592225e-07
3.9592225e-07
3.9592225e-07
3.9592225e-07
3.9592224e-07
3.9592224e-07
3.9592224e-07
3.9592224e-07
3.9592224e-07
3.9592224e-07
3.9592224e-07
3.9592224e-07
3.9592224e-07
3.9592224e-07
3.9592224e-07
3.9592224e-07
3.9592224e-07
3.9592224e-07
3.9592221e-07
3.959222e-07
3.959222e-07
3.959222e-07
3.959222e-07
3.959222e-07
3.959222e-07
3.959222e-07
3.959222e-07
3.9592219e-07
3.9592219e-07
3.9592219e-07
3.9592219e-07
3.9592219e-07
3.9592218e-07
3.9592219e-07
3.9592219e-07
3.9592219e-07
3.9592223e-07
3.9592223e-07
3.9592223e-07
3.9592224e-07
3.9592225e-07
3.9592225e-07
3.9592225e-07
3.9592225e-07
3.9592225e-07
3.9592225e-07
3.9592225e-07
3.9592225e-07
3.9592225e-07
3.9592225e-07
3.9592225e-07
3.9592225e-07
3.9592226e-07
3.9592226e-07
3.9592226e-07
3.9592226e-07
3.9592226e-07
3.9592226e-07
3.9592226e-07
3.9592226e-07
3.9592226e-07
3.9592226e-07
3.9592226e-07
3.9592226e-07
3.9592226e-07
3.9592226e-07
3.9592226e-07
3.9592226e-07
3.9592226e-07
3.9592226e-07
3.9592226e-07
3.9592226e-07
3.9592226e-07
3.9592226e-07
3.9592226e-07
3.9592226e-07
3.9592226e-07
3.9592226e-07
3.9592226e-07
3.9592226e-07
3.9592226e-07
3.9592226e-07
3.9592226e-07
3.9592226e-07
3.9592226e-07
3.9592226e-07
3.9592226e-07
3.9592226e-07
3.9592209e-07
3.9592206e-07
3.9592202e-07
3.9592198e-07
3.9592191e-07
3.9592183e-07
3.9592171e-07
3.9592152e-07
3.9592124e-07
3.9592088e-07
3.9592446e-07
3.9629023e-07
3.9630901e-07
4.3246277e-07
3.9592208e-07
3.9592205e-07
3.9592201e-07
3.9592197e-07
3.959219e-07
3.9592181e-07
3.9592168e-07
3.9592149e-07
3.9592119e-07
3.9592085e-07
3.9592486e-07
3.9627513e-07
3.9630405e-07
4.31712e-07
3.9592207e-07
3.9592204e-07
3.95922e-07
3.9592195e-07
3.9592189e-07
3.9592179e-07
3.9592166e-07
3.9592146e-07
3.9592115e-07
3.9592091e-07
3.9592494e-07
3.9624537e-07
3.9629931e-07
4.3072536e-07
3.9592207e-07
3.9592204e-07
3.9592199e-07
3.9592194e-07
3.9592187e-07
3.9592178e-07
3.9592164e-07
3.9592143e-07
3.9592111e-07
3.9592077e-07
3.9592508e-07
3.9620797e-07
3.9626938e-07
4.2967681e-07
3.9616707e-07
3.9621893e-07
4.2867188e-07
4.3253379e-07
4.3325863e-07
4.3383447e-07
4.3446694e-07
4.3513169e-07
4.3582032e-07
4.3651381e-07
4.3724073e-07
4.3805343e-07
4.3899055e-07
4.4005006e-07
4.4115964e-07
4.4217332e-07
4.4243724e-07
3.9625861e-07
3.9629484e-07
3.9629929e-07
3.9630237e-07
3.9629955e-07
3.9628864e-07
3.9626863e-07
3.9624535e-07
3.9621893e-07
3.961813e-07
3.961202e-07
3.9601666e-07
3.9583575e-07
3.9552352e-07
3.9628102e-07
3.9630262e-07
3.9632021e-07
3.9633811e-07
3.9635621e-07
3.9637398e-07
3.9639007e-07
3.964044e-07
3.9641913e-07
3.9643608e-07
3.9645522e-07
3.9647365e-07
3.9648154e-07
3.9645551e-07
3.9592329e-07
3.9592345e-07
3.9592342e-07
3.9592336e-07
3.9592327e-07
3.9592311e-07
3.959229e-07
3.9592264e-07
3.9592237e-07
3.9592202e-07
3.9592154e-07
3.9592083e-07
3.9591973e-07
3.9591814e-07
3.9592095e-07
3.9592096e-07
3.9592098e-07
3.95921e-07
3.9592103e-07
3.9592106e-07
3.9592108e-07
3.959211e-07
3.9592113e-07
3.9592116e-07
3.959212e-07
3.9592124e-07
3.9592126e-07
3.9592125e-07
3.9592126e-07
3.9592127e-07
3.9592128e-07
3.9592129e-07
3.9592131e-07
3.9592133e-07
3.9592135e-07
3.9592136e-07
3.9592138e-07
3.9592141e-07
3.9592143e-07
3.9592146e-07
3.9592149e-07
3.9592152e-07
3.9592154e-07
3.9592155e-07
3.9592156e-07
3.9592156e-07
3.9592158e-07
3.9592159e-07
3.959216e-07
3.9592161e-07
3.9592163e-07
3.9592165e-07
3.9592167e-07
3.9592169e-07
3.9592171e-07
3.9592173e-07
3.9592172e-07
3.9592172e-07
3.9592173e-07
3.9592174e-07
3.9592175e-07
3.9592176e-07
3.9592177e-07
3.9592177e-07
3.9592179e-07
3.959218e-07
3.9592181e-07
3.9592183e-07
3.9592185e-07
3.9592186e-07
3.9592184e-07
3.9592184e-07
3.9592185e-07
3.9592185e-07
3.9592186e-07
3.9592187e-07
3.9592187e-07
3.9592188e-07
3.9592189e-07
3.959219e-07
3.9592191e-07
3.9592192e-07
3.9592194e-07
3.9592195e-07
3.9592192e-07
3.9592193e-07
3.9592193e-07
3.9592193e-07
3.9592194e-07
3.9592194e-07
3.9592195e-07
3.9592196e-07
3.9592196e-07
3.9592197e-07
3.9592198e-07
3.9592199e-07
3.95922e-07
3.9592201e-07
3.9592198e-07
3.9592199e-07
3.9592199e-07
3.9592199e-07
3.95922e-07
3.95922e-07
3.9592201e-07
3.9592201e-07
3.9592202e-07
3.9592202e-07
3.9592203e-07
3.9592204e-07
3.9592205e-07
3.9592206e-07
3.9592203e-07
3.9592203e-07
3.9592203e-07
3.9592204e-07
3.9592204e-07
3.9592204e-07
3.9592205e-07
3.9592205e-07
3.9592206e-07
3.9592206e-07
3.9592207e-07
3.9592208e-07
3.9592208e-07
3.9592209e-07
3.9592207e-07
3.9592207e-07
3.9592207e-07
3.9592207e-07
3.9592207e-07
3.9592208e-07
3.9592208e-07
3.9592209e-07
3.9592209e-07
3.9592209e-07
3.959221e-07
3.959221e-07
3.9592211e-07
3.9592212e-07
3.9592209e-07
3.9592209e-07
3.959221e-07
3.959221e-07
3.959221e-07
3.959221e-07
3.9592211e-07
3.9592211e-07
3.9592211e-07
3.9592212e-07
3.9592212e-07
3.9592213e-07
3.9592213e-07
3.9592214e-07
3.9592214e-07
3.9592214e-07
3.9592215e-07
3.9592215e-07
3.9592215e-07
3.9592216e-07
3.9592216e-07
3.9592216e-07
3.9592216e-07
3.9592215e-07
3.9592215e-07
3.9592215e-07
3.9592215e-07
3.9592214e-07
3.9592212e-07
3.9592212e-07
3.9592213e-07
3.9592213e-07
3.9592214e-07
3.9592214e-07
3.9592214e-07
3.9592214e-07
3.9592214e-07
3.9592214e-07
3.9592214e-07
3.9592213e-07
3.9592213e-07
3.9592212e-07
3.9592209e-07
3.959221e-07
3.959221e-07
3.9592211e-07
3.9592212e-07
3.9592212e-07
3.9592212e-07
3.9592212e-07
3.9592212e-07
3.9592212e-07
3.9592211e-07
3.9592211e-07
3.959221e-07
3.959221e-07
3.9592206e-07
3.9592207e-07
3.9592207e-07
3.9592208e-07
3.9592209e-07
3.9592209e-07
3.9592209e-07
3.9592209e-07
3.9592209e-07
3.9592209e-07
3.9592208e-07
3.9592208e-07
3.9592207e-07
3.9592207e-07
3.9592201e-07
3.9592202e-07
3.9592203e-07
3.9592204e-07
3.9592205e-07
3.9592206e-07
3.9592206e-07
3.9592206e-07
3.9592206e-07
3.9592205e-07
3.9592205e-07
3.9592204e-07
3.9592203e-07
3.9592202e-07
3.9592195e-07
3.9592196e-07
3.9592198e-07
3.9592199e-07
3.95922e-07
3.9592201e-07
3.9592201e-07
3.9592201e-07
3.9592201e-07
3.95922e-07
3.9592199e-07
3.9592199e-07
3.9592197e-07
3.9592196e-07
3.9592186e-07
3.9592188e-07
3.959219e-07
3.9592191e-07
3.9592193e-07
3.9592194e-07
3.9592194e-07
3.9592194e-07
3.9592194e-07
3.9592193e-07
3.9592192e-07
3.9592191e-07
3.9592189e-07
3.9592188e-07
3.9592173e-07
3.9592175e-07
3.9592178e-07
3.959218e-07
3.9592183e-07
3.9592184e-07
3.9592184e-07
3.9592184e-07
3.9592184e-07
3.9592182e-07
3.9592181e-07
3.9592179e-07
3.9592177e-07
3.9592176e-07
3.9592152e-07
3.9592155e-07
3.9592158e-07
3.959216e-07
3.959216e-07
3.9592158e-07
3.9592156e-07
3.9592156e-07
3.9592157e-07
3.9592159e-07
3.959216e-07
3.959216e-07
3.9592157e-07
3.9592156e-07
3.9592121e-07
3.9592136e-07
3.9592173e-07
3.9592239e-07
3.959233e-07
3.9592413e-07
3.9592467e-07
3.9592488e-07
3.9592444e-07
3.9592337e-07
3.9592239e-07
3.9592183e-07
3.9592149e-07
3.9592131e-07
3.9591793e-07
3.959136e-07
3.9590456e-07
3.9588757e-07
3.9586705e-07
3.9584969e-07
3.9583867e-07
3.9583428e-07
3.958434e-07
3.9586646e-07
3.9588865e-07
3.9590256e-07
3.9591059e-07
3.9591513e-07
3.9627578e-07
3.963835e-07
3.9658471e-07
3.9693317e-07
3.9727074e-07
3.9753382e-07
3.9770242e-07
3.9777331e-07
3.9762453e-07
3.9726164e-07
3.968687e-07
3.9659584e-07
3.9644101e-07
3.9634934e-07
3.9574855e-07
3.9490207e-07
3.9319478e-07
3.9058005e-07
3.8856393e-07
3.872458e-07
3.8622588e-07
3.8586746e-07
3.8659954e-07
3.881684e-07
3.9079489e-07
3.9294625e-07
3.9431972e-07
3.9514023e-07
4.3759515e-07
4.4422639e-07
4.5192336e-07
4.5842031e-07
4.6271123e-07
4.6584285e-07
4.6744574e-07
4.6702453e-07
4.6486647e-07
4.6197765e-07
4.574242e-07
4.5132055e-07
4.4601916e-07
4.4116313e-07
3.9592213e-07
3.9592211e-07
3.9592208e-07
3.9592204e-07
3.95922e-07
3.9592193e-07
3.9592184e-07
3.959217e-07
3.9592147e-07
3.9592116e-07
3.9592162e-07
3.9633076e-07
3.9612325e-07
4.372737e-07
3.9592212e-07
3.959221e-07
3.9592207e-07
3.9592204e-07
3.9592199e-07
3.9592192e-07
3.9592182e-07
3.9592167e-07
3.9592144e-07
3.9592117e-07
3.9592315e-07
3.9631912e-07
3.9629818e-07
4.35635e-07
3.9592212e-07
3.959221e-07
3.9592207e-07
3.9592203e-07
3.9592197e-07
3.959219e-07
3.959218e-07
3.9592165e-07
3.9592141e-07
3.9592114e-07
3.9592376e-07
3.9628364e-07
3.9635702e-07
4.3386857e-07
3.9592211e-07
3.9592209e-07
3.9592206e-07
3.9592202e-07
3.9592196e-07
3.9592189e-07
3.9592178e-07
3.9592163e-07
3.9592138e-07
3.9592109e-07
3.9592388e-07
3.9624707e-07
3.9635377e-07
4.3236067e-07
3.9592211e-07
3.9592208e-07
3.9592205e-07
3.9592201e-07
3.9592195e-07
3.9592188e-07
3.9592177e-07
3.9592161e-07
3.9592135e-07
3.9592105e-07
3.9592382e-07
3.9621511e-07
3.9632932e-07
4.3108185e-07
3.959221e-07
3.9592208e-07
3.9592205e-07
3.95922e-07
3.9592195e-07
3.9592187e-07
3.9592175e-07
3.9592159e-07
3.9592132e-07
3.95921e-07
3.9592369e-07
3.9618614e-07
3.963011e-07
4.3000624e-07
3.959221e-07
3.9592207e-07
3.9592204e-07
3.95922e-07
3.9592194e-07
3.9592186e-07
3.9592174e-07
3.9592157e-07
3.959213e-07
3.9592096e-07
3.959235e-07
3.9615946e-07
3.9626955e-07
4.2907134e-07
3.959221e-07
3.9592207e-07
3.9592204e-07
3.9592199e-07
3.9592193e-07
3.9592185e-07
3.9592173e-07
3.9592155e-07
3.9592127e-07
3.9592093e-07
3.9592329e-07
3.9613388e-07
3.9623954e-07
4.2826077e-07
3.9592209e-07
3.9592207e-07
3.9592203e-07
3.9592199e-07
3.9592192e-07
3.9592184e-07
3.9592172e-07
3.9592154e-07
3.9592126e-07
3.9592091e-07
3.9592304e-07
3.9610874e-07
3.9620659e-07
4.2750899e-07
3.9592209e-07
3.9592206e-07
3.9592203e-07
3.9592198e-07
3.9592192e-07
3.9592183e-07
3.9592171e-07
3.9592153e-07
3.9592124e-07
3.9592098e-07
3.9592264e-07
3.9608429e-07
3.9617224e-07
4.2681504e-07
3.9592209e-07
3.9592206e-07
3.9592202e-07
3.9592197e-07
3.9592191e-07
3.9592182e-07
3.959217e-07
3.9592152e-07
3.9592122e-07
3.9592084e-07
3.9592253e-07
3.9606041e-07
3.9613637e-07
4.2616043e-07
3.9592208e-07
3.9592206e-07
3.9592202e-07
3.9592197e-07
3.9592191e-07
3.9592182e-07
3.9592169e-07
3.9592151e-07
3.9592121e-07
3.9592079e-07
3.9592211e-07
3.9603838e-07
3.9609921e-07
4.2553783e-07
3.9592208e-07
3.9592205e-07
3.9592202e-07
3.9592197e-07
3.959219e-07
3.9592181e-07
3.9592169e-07
3.959215e-07
3.9592119e-07
3.9592077e-07
3.9592199e-07
3.9601213e-07
3.960618e-07
4.2495962e-07
3.9592208e-07
3.9592205e-07
3.9592201e-07
3.9592196e-07
3.959219e-07
3.9592181e-07
3.9592168e-07
3.9592149e-07
3.9592119e-07
3.9592075e-07
3.9592097e-07
3.9598024e-07
3.9602021e-07
4.2427999e-07
3.9592208e-07
3.9592205e-07
3.9592201e-07
3.9592196e-07
3.9592189e-07
3.959218e-07
3.9592167e-07
3.9592148e-07
3.9592117e-07
3.9592065e-07
3.9592009e-07
3.9593544e-07
3.9601913e-07
4.2405345e-07
3.9592207e-07
3.9592204e-07
3.95922e-07
3.9592195e-07
3.9592188e-07
3.9592179e-07
3.9592166e-07
3.9592146e-07
3.9592114e-07
3.9592058e-07
3.9591914e-07
3.9590118e-07
3.959185e-07
4.2318257e-07
3.9592207e-07
3.9592204e-07
3.95922e-07
3.9592194e-07
3.9592187e-07
3.9592178e-07
3.9592164e-07
3.9592144e-07
3.9592111e-07
3.9592051e-07
3.9591769e-07
3.9585636e-07
3.9582344e-07
4.2223256e-07
3.9592207e-07
3.9592203e-07
3.9592199e-07
3.9592194e-07
3.9592187e-07
3.9592177e-07
3.9592163e-07
3.9592142e-07
3.9592108e-07
3.9592042e-07
3.959158e-07
3.9580665e-07
3.9572553e-07
4.2133148e-07
)
;

boundaryField
{
    Side
    {
        type            empty;
    }
    Inlet
    {
        type            inletOutlet;
        inletValue      uniform 3.9592226e-07;
        value           nonuniform List<scalar> 
49
(
3.9592226e-07
3.9592226e-07
3.9592226e-07
3.9592226e-07
3.9592226e-07
3.9592226e-07
3.9592226e-07
3.9592226e-07
3.9592226e-07
3.9592226e-07
3.9592226e-07
3.9592226e-07
3.9592226e-07
3.9592226e-07
3.9592226e-07
3.9592226e-07
3.9592226e-07
3.9592226e-07
3.9592226e-07
3.9592226e-07
3.9592226e-07
3.9592226e-07
3.9592226e-07
3.9592226e-07
3.9592226e-07
3.9592226e-07
3.9592226e-07
3.9592226e-07
3.9592226e-07
3.9592226e-07
3.9592226e-07
3.9592226e-07
3.9592226e-07
3.9592226e-07
3.9592226e-07
3.9592226e-07
3.9592226e-07
3.9592226e-07
3.9592226e-07
3.9592226e-07
3.9592226e-07
3.9592226e-07
3.9592226e-07
3.9592226e-07
3.9592226e-07
3.9592226e-07
3.9592226e-07
3.9592226e-07
3.9592226e-07
)
;
    }
    Airfoil
    {
        type            nutUSpaldingWallFunction;
        value           nonuniform List<scalar> 
51
(
1.5443976e-05
1.5201721e-05
1.4983174e-05
1.4776603e-05
1.4588553e-05
1.569465e-05
1.5741002e-05
1.5796944e-05
1.586454e-05
1.5942596e-05
1.6030767e-05
1.6130651e-05
1.6246132e-05
1.6380439e-05
1.6533442e-05
1.6703636e-05
1.6888483e-05
1.7085625e-05
1.7316974e-05
1.7962787e-05
1.7884192e-05
1.7663679e-05
1.7752832e-05
1.7666194e-05
1.7515491e-05
1.7375085e-05
1.7356334e-05
1.7389865e-05
1.7151131e-05
1.7107146e-05
1.7442477e-05
1.7854213e-05
1.802144e-05
1.7200633e-05
1.6924432e-05
1.6692852e-05
1.6489953e-05
1.6314169e-05
1.6160148e-05
1.6026336e-05
1.59081e-05
1.580339e-05
1.5710625e-05
1.5628906e-05
1.5557226e-05
1.5494492e-05
1.5441036e-05
1.5241712e-05
1.5092233e-05
1.4956461e-05
1.4833407e-05
)
;
    }
    Outlet
    {
        type            zeroGradient;
    }
    Flap
    {
        type            nutUSpaldingWallFunction;
        value           nonuniform List<scalar> 0();
    }
    procBoundary0to1
    {
        type            processor;
        value           nonuniform List<scalar> 
58
(
3.9592226e-07
3.9592226e-07
3.9592226e-07
3.9592226e-07
3.9592226e-07
3.9592226e-07
3.9592226e-07
3.9592226e-07
3.9592226e-07
3.9592226e-07
3.9592225e-07
3.9592225e-07
3.9592225e-07
3.9592223e-07
3.9592218e-07
3.9592218e-07
3.9592223e-07
3.9592225e-07
3.9592225e-07
3.9592225e-07
3.9592226e-07
3.9592226e-07
3.9592226e-07
3.9592226e-07
3.9592226e-07
3.9592226e-07
3.9592226e-07
3.9592226e-07
3.9592226e-07
3.9592206e-07
3.9592203e-07
3.9592199e-07
3.9592193e-07
3.9592186e-07
3.9592176e-07
3.9592162e-07
3.9592141e-07
3.9592107e-07
3.9592067e-07
3.9592518e-07
3.9592518e-07
3.9611233e-07
3.9614367e-07
4.2744271e-07
3.9592206e-07
3.9592203e-07
3.9592199e-07
3.9592193e-07
3.9592186e-07
3.9592176e-07
3.9592162e-07
3.959214e-07
3.9592106e-07
3.9592033e-07
3.9591353e-07
3.9575456e-07
3.9562236e-07
4.2034817e-07
)
;
    }
}


// ************************************************************************* //
