/*--------------------------------*- C++ -*----------------------------------*\
| =========                 |                                                 |
| \\      /  F ield         | OpenFOAM: The Open Source CFD Toolbox           |
|  \\    /   O peration     | Version:  2206                                  |
|   \\  /    A nd           | Website:  www.openfoam.com                      |
|    \\/     M anipulation  |                                                 |
\*---------------------------------------------------------------------------*/
FoamFile
{
    version     2.0;
    format      ascii;
    arch        "LSB;label=32;scalar=64";
    class       surfaceScalarField;
    location    "0.02";
    object      phi;
}
// * * * * * * * * * * * * * * * * * * * * * * * * * * * * * * * * * * * * * //

dimensions      [1 0 -1 0 0 0 0];

oriented        oriented;

internalField   nonuniform List<scalar> 
2713
(
0.19397622
-0.27084531
0.28430196
0.18051958
-0.27084531
0.28430195
0.16706294
-0.27084531
0.28430196
0.15360629
-0.27084531
0.28430195
0.14014965
-0.27084531
0.28430196
0.12669301
-0.27084531
0.28430195
0.11323636
-0.27084531
0.28430196
0.09977972
-0.27084531
0.28430196
0.086323077
-0.27084531
0.28430195
0.072866434
-0.27084531
0.28430196
0.059409791
-0.27084531
0.28430195
0.045953147
-0.27084531
0.28430196
0.032496504
-0.27084531
0.28430195
-0.27084531
0.28430195
0.019039861
0.3415983
-0.24693503
0.31768802
-0.24693502
0.29377773
-0.24693503
0.26986744
-0.24693502
0.24595716
-0.24693503
0.22204687
-0.24693502
0.19813659
-0.24693503
0.1742263
-0.24693502
0.15031601
-0.24693503
0.12640573
-0.24693503
0.10249544
-0.24693502
0.078585155
-0.24693503
0.054674868
-0.24693503
-0.24693503
0.030764582
0.47611848
-0.21349429
0.44267774
-0.21349429
0.409237
-0.21349429
0.37579626
-0.21349429
0.34235552
-0.21349429
0.30891478
-0.21349429
0.27547404
-0.21349429
0.2420333
-0.21349429
0.20859256
-0.21349429
0.17515182
-0.21349429
0.14171108
-0.21349429
0.10827034
-0.21349429
0.074829601
-0.21349429
-0.21349429
0.041388862
0.59237698
-0.17181395
0.55069665
-0.17181395
0.50901632
-0.17181395
0.46733599
-0.17181395
0.42565566
-0.17181395
0.38397532
-0.17181395
0.34229499
-0.17181395
0.30061466
-0.17181395
0.25893433
-0.17181395
0.217254
-0.17181395
0.17557367
-0.17181395
0.13389333
-0.17181395
0.092213003
-0.17181395
-0.17181395
0.050532671
0.68591451
-0.12350276
0.63760331
-0.12350276
0.58929212
-0.12350276
0.54098092
-0.12350276
0.49266972
-0.12350276
0.44435852
-0.12350276
0.39604732
-0.12350276
0.34773613
-0.12350276
0.29942493
-0.12350276
0.25111373
-0.12350276
0.20280253
-0.12350276
0.15449133
-0.12350276
0.10618014
-0.12350276
-0.12350276
0.057868939
0.75314325
-0.070425217
0.70006571
-0.070425217
0.64698817
-0.070425217
0.59391064
-0.070425217
0.5408331
-0.070425217
0.48775556
-0.070425217
0.43467802
-0.070425217
0.38160048
-0.070425217
0.32852294
-0.070425217
0.2754454
-0.070425217
0.22236786
-0.070425217
0.16929033
-0.070425217
0.11621279
-0.070425217
-0.070425217
0.063135248
0.79148452
-0.014629732
0.73568904
-0.014629732
0.67989355
-0.014629732
0.62409807
-0.014629732
0.56830258
-0.014629732
0.5125071
-0.014629732
0.45671162
-0.014629732
0.40091613
-0.014629732
0.34512065
-0.014629732
0.28932516
-0.014629732
0.23352968
-0.014629732
0.17773419
-0.014629732
0.12193871
-0.014629732
-0.014629732
0.066143224
0.79946767
0.041730452
0.74310748
0.041730452
0.6867473
0.041730452
0.63038711
0.041730452
0.57402693
0.041730452
0.51766674
0.041730452
0.46130656
0.041730452
0.40494638
0.041730452
0.34858619
0.041730452
0.29222601
0.041730452
0.23586582
0.041730452
0.17950564
0.041730452
0.12314546
0.041730452
0.041730452
0.066785272
0.77678648
0.096480302
0.72203663
0.096480303
0.66728678
0.096480302
0.61253693
0.096480302
0.55778708
0.096480303
0.50303723
0.096480302
0.44828738
0.096480302
0.39353753
0.096480302
0.33878768
0.096480302
0.28403783
0.096480302
0.22928798
0.096480302
0.17453813
0.096480302
0.11978828
0.096480302
0.096480302
0.065038428
0.72431095
0.1475069
0.67328436
0.1475069
0.62225776
0.1475069
0.57123116
0.1475069
0.52020456
0.1475069
0.46917796
0.1475069
0.41815136
0.1475069
0.36712476
0.1475069
0.31609817
0.1475069
0.26507157
0.1475069
0.21404497
0.1475069
0.16301837
0.1475069
0.11199177
0.1475069
0.1475069
0.060965173
0.64405389
0.19284095
0.59871984
0.19284095
0.55338579
0.19284095
0.50805173
0.19284095
0.46271768
0.19284095
0.41738363
0.19284095
0.37204958
0.19284095
0.32671552
0.19284095
0.28138147
0.19284095
0.23604742
0.19284095
0.19071337
0.19284095
0.14537931
0.19284095
0.10004526
0.19284095
0.19284095
0.054711209
0.53909371
0.23073276
0.5012019
0.23073276
0.4633101
0.23073276
0.42541829
0.23073276
0.38752649
0.23073276
0.34963468
0.23073276
0.31174288
0.23073276
0.27385107
0.23073276
0.23595927
0.23073276
0.19806746
0.23073276
0.16017565
0.23073276
0.12228385
0.23073276
0.084392043
0.23073276
0.23073276
0.046500238
0.41345636
0.25971971
0.3844694
0.25971971
0.35548245
0.25971971
0.3264955
0.25971971
0.29750854
0.25971971
0.26852159
0.25971971
0.23953464
0.25971971
0.21054768
0.25971971
0.18156073
0.25971971
0.15257378
0.25971971
0.12358682
0.25971971
0.094599871
0.25971971
0.065612917
0.25971971
0.25971971
0.036625964
0.27240292
0.27868348
0.25343915
0.27868348
0.23447538
0.27868348
0.21551161
0.27868348
0.19654784
0.27868348
0.17758407
0.27868348
0.1586203
0.27868348
0.13965653
0.27868348
0.12069276
0.27868348
0.10172899
0.27868348
0.082765216
0.27868348
0.063801446
0.27868348
0.044837676
0.27868348
0.27868348
0.025873906
-0.0037010575
0.2841013
-0.0035003978
0.28410129
-0.003299738
0.2841013
-0.0030990783
0.28410129
-0.0028984185
0.2841013
-0.0026977588
0.28410129
-0.002497099
0.2841013
-0.0022964393
0.2841013
-0.0020957795
0.28410129
-0.0018951198
0.2841013
-0.0016944601
0.28410129
-0.0014938003
0.2841013
-0.0012931406
0.28410129
0.2841013
-0.0010924808
-0.0037010575
0.28390064
-0.0035003978
0.28390063
-0.003299738
0.28390064
-0.0030990783
0.28390063
-0.0028984185
0.28390064
-0.0026977588
0.28390063
-0.002497099
0.28390064
-0.0022964393
0.28390064
-0.0020957795
0.28390063
-0.0018951198
0.28390064
-0.0016944601
0.28390063
-0.0014938003
0.28390064
-0.0012931406
0.28390064
0.28390064
-0.0010924808
-0.0037010575
0.28369998
-0.0035003978
0.28369998
-0.003299738
0.28369998
-0.0030990783
0.28369998
-0.0028984185
0.28369998
-0.0026977588
0.28369998
-0.002497099
0.28369998
-0.0022964393
0.28369998
-0.0020957795
0.28369998
-0.0018951198
0.28369998
-0.0016944601
0.28369998
-0.0014938003
0.28369998
-0.0012931406
0.28369998
0.28369998
-0.0010924808
-0.0037010575
0.28349932
-0.0035003978
0.28349932
-0.003299738
0.28349932
-0.0030990783
0.28349932
-0.0028984185
0.28349932
-0.0026977588
0.28349932
-0.002497099
0.28349932
-0.0022964393
0.28349932
-0.0020957795
0.28349932
-0.0018951198
0.28349932
-0.0016944601
0.28349932
-0.0014938003
0.28349932
-0.0012931406
0.28349932
0.28349932
-0.0010924808
-0.0037010575
0.28329866
-0.0035003978
0.28329866
-0.003299738
0.28329866
-0.0030990783
0.28329866
-0.0028984185
0.28329866
-0.0026977588
0.28329866
-0.002497099
0.28329866
-0.0022964393
0.28329866
-0.0020957795
0.28329866
-0.0018951198
0.28329866
-0.0016944601
0.28329866
-0.0014938003
0.28329866
-0.0012931406
0.28329866
0.28329866
-0.0010924808
-0.0037010575
0.283098
-0.0035003978
0.283098
-0.003299738
0.283098
-0.0030990783
0.283098
-0.0028984185
0.283098
-0.0026977588
0.283098
-0.002497099
0.283098
-0.0022964393
0.283098
-0.0020957795
0.283098
-0.0018951198
0.283098
-0.0016944601
0.283098
-0.0014938003
0.283098
-0.0012931406
0.283098
0.283098
-0.0010924808
-0.0037010575
0.28289734
-0.0035003978
0.28289734
-0.003299738
0.28289734
-0.0030990783
0.28289734
-0.0028984185
0.28289734
-0.0026977588
0.28289734
-0.002497099
0.28289734
-0.0022964393
0.28289734
-0.0020957795
0.28289734
-0.0018951198
0.28289734
-0.0016944601
0.28289734
-0.0014938003
0.28289734
-0.0012931406
0.28289734
0.28289734
-0.0010924808
-0.0037010575
0.28269668
-0.0035003978
0.28269668
-0.003299738
0.28269668
-0.0030990783
0.28269668
-0.0028984185
0.28269668
-0.0026977588
0.28269668
-0.002497099
0.28269668
-0.0022964393
0.28269668
-0.0020957795
0.28269668
-0.0018951198
0.28269668
-0.0016944601
0.28269668
-0.0014938003
0.28269668
-0.0012931406
0.28269668
0.28269668
-0.0010924808
-0.0037010575
0.28249602
-0.0035003978
0.28249602
-0.003299738
0.28249602
-0.0030990783
0.28249602
-0.0028984185
0.28249602
-0.0026977588
0.28249602
-0.002497099
0.28249602
-0.0022964393
0.28249602
-0.0020957795
0.28249602
-0.0018951198
0.28249602
-0.0016944601
0.28249602
-0.0014938003
0.28249602
-0.0012931406
0.28249602
0.28249602
-0.0010924808
-0.0037010575
0.28229536
-0.0035003978
0.28229536
-0.003299738
0.28229536
-0.0030990783
0.28229536
-0.0028984185
0.28229536
-0.0026977588
0.28229536
-0.002497099
0.28229536
-0.0022964393
0.28229536
-0.0020957795
0.28229536
-0.0018951198
0.28229536
-0.0016944601
0.28229536
-0.0014938003
0.28229536
-0.0012931406
0.28229536
0.28229536
-0.0010924808
-0.0037010575
0.2820947
-0.0035003978
0.2820947
-0.003299738
0.2820947
-0.0030990783
0.2820947
-0.0028984185
0.2820947
-0.0026977588
0.2820947
-0.002497099
0.2820947
-0.0022964393
0.2820947
-0.0020957795
0.2820947
-0.0018951198
0.2820947
-0.0016944601
0.2820947
-0.0014938003
0.2820947
-0.0012931406
0.2820947
0.2820947
-0.0010924808
-0.0037010575
0.28189404
-0.0035003978
0.28189404
-0.003299738
0.28189404
-0.0030990783
0.28189404
-0.0028984185
0.28189404
-0.0026977588
0.28189404
-0.002497099
0.28189404
-0.0022964393
0.28189404
-0.0020957795
0.28189404
-0.0018951198
0.28189404
-0.0016944601
0.28189404
-0.0014938003
0.28189404
-0.0012931406
0.28189404
0.28189404
-0.0010924808
-0.0037010575
0.28169338
-0.0035003978
0.28169338
-0.003299738
0.28169338
-0.0030990783
0.28169338
-0.0028984185
0.28169338
-0.0026977588
0.28169338
-0.002497099
0.28169338
-0.0022964393
0.28169338
-0.0020957795
0.28169338
-0.0018951198
0.28169338
-0.0016944601
0.28169338
-0.0014938003
0.28169338
-0.0012931406
0.28169338
0.28169338
-0.0010924808
-0.0037010575
0.28149272
-0.0035003978
0.28149272
-0.003299738
0.28149272
-0.0030990783
0.28149272
-0.0028984185
0.28149272
-0.0026977588
0.28149272
-0.002497099
0.28149272
-0.0022964393
0.28149272
-0.0020957795
0.28149272
-0.0018951198
0.28149272
-0.0016944601
0.28149272
-0.0014938003
0.28149272
-0.0012931406
0.28149272
0.28149272
-0.0010924808
-0.0015482441
0.28166756
-0.0017230846
0.28166756
-0.0018979251
0.28166756
-0.0020727657
0.28166756
-0.0022476053
0.28166756
-0.0024224458
0.28166756
-0.0025972855
0.28166756
-0.002772126
0.28166756
-0.0029469665
0.28166756
-0.0031218062
0.28166756
-0.0032966467
0.28166756
-0.0034714863
0.28166756
-0.0036463271
0.28166756
0.28166756
-0.0038211673
-0.001548245
0.2818424
-0.0017230855
0.2818424
-0.0018979252
0.2818424
-0.0020727648
0.2818424
-0.0022476053
0.2818424
-0.0024224458
0.2818424
-0.0025972863
0.2818424
-0.002772126
0.2818424
-0.0029469665
0.2818424
-0.0031218062
0.2818424
-0.0032966467
0.2818424
-0.0034714872
0.2818424
-0.003646327
0.2818424
0.2818424
-0.0038211672
-0.0015482441
-0.0017230846
-0.0018979243
-0.0020727657
-0.0022476053
-0.0024224458
-0.0025972855
-0.002772126
0.28201724
-0.0029469657
0.28201724
-0.003121807
0.28201724
-0.0032966467
0.28201724
-0.0034714872
0.28201724
-0.003646327
0.28201724
0.28201724
-0.0038211673
-0.002772126
-0.0029469665
-0.0031218062
-0.0032966467
-0.0034714863
-0.003646327
-0.0038211672
0.27888414
0.0037010575
0.2790848
0.0037010575
0.27928546
0.0037010575
0.27948612
0.0037010575
0.27968678
0.0037010575
0.27988744
0.0037010575
0.2800881
0.0037010575
0.28028876
0.0037010575
0.28048942
0.0037010575
0.28069008
0.0037010575
0.28089074
0.0037010575
0.2810914
0.0037010575
0.28129206
0.0037010575
0.0037010575
0.28149272
0.27888414
0.0035003978
0.2790848
0.0035003978
0.27928546
0.0035003978
0.27948612
0.0035003978
0.27968678
0.0035003978
0.27988744
0.0035003978
0.2800881
0.0035003978
0.28028876
0.0035003978
0.28048942
0.0035003978
0.28069008
0.0035003978
0.28089074
0.0035003978
0.2810914
0.0035003978
0.28129206
0.0035003978
0.0035003978
0.28149272
0.27888414
0.003299738
0.2790848
0.003299738
0.27928546
0.003299738
0.27948612
0.003299738
0.27968678
0.003299738
0.27988744
0.003299738
0.2800881
0.003299738
0.28028876
0.003299738
0.28048942
0.003299738
0.28069008
0.003299738
0.28089074
0.003299738
0.2810914
0.003299738
0.28129206
0.003299738
0.003299738
0.28149272
0.27888414
0.0030990783
0.2790848
0.0030990783
0.27928546
0.0030990783
0.27948612
0.0030990783
0.27968678
0.0030990783
0.27988744
0.0030990783
0.2800881
0.0030990783
0.28028876
0.0030990783
0.28048942
0.0030990783
0.28069008
0.0030990783
0.28089074
0.0030990783
0.2810914
0.0030990783
0.28129206
0.0030990783
0.0030990783
0.28149272
0.27888414
0.0028984185
0.2790848
0.0028984185
0.27928546
0.0028984185
0.27948612
0.0028984185
0.27968678
0.0028984185
0.27988744
0.0028984185
0.2800881
0.0028984185
0.28028876
0.0028984185
0.28048942
0.0028984185
0.28069008
0.0028984185
0.28089074
0.0028984185
0.2810914
0.0028984185
0.28129206
0.0028984185
0.0028984185
0.28149272
0.27888414
0.0026977588
0.2790848
0.0026977588
0.27928546
0.0026977588
0.27948612
0.0026977588
0.27968678
0.0026977588
0.27988744
0.0026977588
0.2800881
0.0026977588
0.28028876
0.0026977588
0.28048942
0.0026977588
0.28069008
0.0026977588
0.28089074
0.0026977588
0.2810914
0.0026977588
0.28129206
0.0026977588
0.0026977588
0.28149272
0.27888414
0.002497099
0.2790848
0.002497099
0.27928546
0.002497099
0.27948612
0.002497099
0.27968678
0.002497099
0.27988744
0.002497099
0.2800881
0.002497099
0.28028876
0.002497099
0.28048942
0.002497099
0.28069008
0.002497099
0.28089074
0.002497099
0.2810914
0.002497099
0.28129206
0.002497099
0.002497099
0.28149272
0.27888414
0.0022964393
0.2790848
0.0022964393
0.27928546
0.0022964393
0.27948612
0.0022964393
0.27968678
0.0022964393
0.27988744
0.0022964393
0.2800881
0.0022964393
0.28028876
0.0022964393
0.28048942
0.0022964393
0.28069008
0.0022964393
0.28089074
0.0022964393
0.2810914
0.0022964393
0.28129206
0.0022964393
0.0022964393
0.28149272
0.27888414
0.0020957795
0.2790848
0.0020957795
0.27928546
0.0020957795
0.27948612
0.0020957795
0.27968678
0.0020957795
0.27988744
0.0020957795
0.2800881
0.0020957795
0.28028876
0.0020957795
0.28048942
0.0020957795
0.28069008
0.0020957795
0.28089074
0.0020957795
0.2810914
0.0020957795
0.28129206
0.0020957795
0.0020957795
0.28149272
0.27888414
0.0018951198
0.2790848
0.0018951198
0.27928546
0.0018951198
0.27948612
0.0018951198
0.27968678
0.0018951198
0.27988744
0.0018951198
0.2800881
0.0018951198
0.28028876
0.0018951198
0.28048942
0.0018951198
0.28069008
0.0018951198
0.28089074
0.0018951198
0.2810914
0.0018951198
0.28129206
0.0018951198
0.0018951198
0.28149272
0.27888414
0.0016944601
0.2790848
0.0016944601
0.27928546
0.0016944601
0.27948612
0.0016944601
0.27968678
0.0016944601
0.27988744
0.0016944601
0.2800881
0.0016944601
0.28028876
0.0016944601
0.28048942
0.0016944601
0.28069008
0.0016944601
0.28089074
0.0016944601
0.2810914
0.0016944601
0.28129206
0.0016944601
0.0016944601
0.28149272
0.27888414
0.0014938003
0.2790848
0.0014938003
0.27928546
0.0014938003
0.27948612
0.0014938003
0.27968678
0.0014938003
0.27988744
0.0014938003
0.2800881
0.0014938003
0.28028876
0.0014938003
0.28048942
0.0014938003
0.28069008
0.0014938003
0.28089074
0.0014938003
0.2810914
0.0014938003
0.28129206
0.0014938003
0.0014938003
0.28149272
0.27888414
0.0012931406
0.2790848
0.0012931406
0.27928546
0.0012931406
0.27948612
0.0012931406
0.27968678
0.0012931406
0.27988744
0.0012931406
0.2800881
0.0012931406
0.28028876
0.0012931406
0.28048942
0.0012931406
0.28069008
0.0012931406
0.28089074
0.0012931406
0.2810914
0.0012931406
0.28129206
0.0012931406
0.0012931406
0.28149272
0.27888414
0.0010924808
0.2790848
0.0010924808
0.27928546
0.0010924808
0.27948612
0.0010924808
0.27968678
0.0010924808
0.27988744
0.0010924808
0.2800881
0.0010924808
0.28028876
0.0010924808
0.28048942
0.0010924808
0.28069008
0.0010924808
0.28089074
0.0010924808
0.2810914
0.0010924808
0.28129206
0.0010924808
0.28149272
0.0010924808
-0.28254176
0.0031724406
-0.0035221211
-0.28219208
0.0031724407
-0.0035221211
-0.2818424
0.0031724406
-0.0035221211
0.0031724407
-0.0035221211
-0.28254176
0.002822761
-0.28219208
0.0028227601
-0.2818424
0.0028227601
0.0028227601
-0.28254176
0.00247308
-0.28219208
0.00247308
-0.2818424
0.0024730799
0.00247308
-0.28254176
0.0021233989
-0.28219208
0.0021233998
-0.2818424
0.0021233998
0.0021233989
-0.28254176
0.0017737196
-0.28219208
0.0017737188
-0.2818424
0.0017737188
0.0017737196
-0.28254176
0.0014240386
-0.28219208
0.0014240386
-0.2818424
0.0014240386
0.0014240386
-0.28254176
0.0010743576
-0.28219208
0.0010743584
-0.2818424
0.0010743584
0.0010743584
-0.28254176
0.00072467825
-0.28219208
0.0007246774
-0.2818424
0.00072467825
0.00072467825
-0.28254176
0.00037499723
-0.28219208
0.00037499723
-0.2818424
0.00037499808
0.00037499723
-0.28254176
2.5317918e-05
-0.28219208
2.5317061e-05
-0.2818424
2.5317057e-05
2.5317061e-05
-0.28254176
-0.00032436311
-0.28219208
-0.00032436311
-0.2818424
-0.00032436397
-0.00032436311
-0.28254176
-0.00067404413
-0.28219208
-0.00067404328
-0.2818424
-0.00067404414
-0.00067404328
-0.28254176
-0.0010237234
-0.28219208
-0.0010237243
-0.2818424
-0.0010237243
-0.0010237243
-0.28254176
-0.28219208
-0.2818424
-0.0031194553
0.01954126
-0.019943926
-0.0027167894
0.01954126
-0.019943926
-0.0023141236
0.01954126
-0.019943926
-0.0019114578
0.01954126
-0.019943926
-0.001508792
0.01954126
-0.019943926
-0.001106126
0.01954126
-0.019943926
-0.00070346027
0.01954126
-0.019943926
-0.00030079452
0.01954126
-0.019943926
0.00010186988
0.01954126
-0.019943926
0.00050430977
0.019541261
-0.019943926
0.00090300434
0.019541239
-0.019943895
0.0011131126
0.019543421
-0.019945921
0.0012792644
0.019531991
-0.019933179
0.020172789
-0.020670314
-0.0031398437
0.019158983
-0.0027575662
0.019158983
-0.0023752888
0.019158983
-0.0019930113
0.019158983
-0.0016107339
0.019158983
-0.0012284565
0.019158983
-0.00084617897
0.019158983
-0.0004639015
0.019158983
-8.1625783e-05
0.019158983
0.0003003633
0.019158983
0.0006786682
0.019158956
0.0008830881
0.01916103
0.0010507128
0.0191505
0.019709062
-0.003163324
0.018800186
-0.002804527
0.018800186
-0.0024457299
0.018800186
-0.0020869329
0.018800186
-0.0017281358
0.018800186
-0.0013693387
0.018800186
-0.0010105418
0.018800186
-0.00065174476
0.018800186
-0.00029294971
0.018800186
6.5367133e-05
0.018800186
0.00042047303
0.018800149
0.00062139459
0.018802065
0.00079384794
0.01879172
0.01925379
-0.0031848141
-0.0028475072
-0.0025102003
-0.0021728934
-0.0018355865
-0.0014982796
-0.0011609726
-0.00082366574
-0.00048636083
-0.00014939513
0.0001842709
0.00038642301
0.018464563
0.00056858994
0.018454705
0.018829486
0.0001569466
0.00035239409
-0.020739313
-0.00094358814
-0.020814115
-0.0010099636
-0.020900937
-0.0010748652
-0.021000708
-0.0011437098
-0.021113592
-0.0012194687
-0.021237669
-0.0013054367
-0.021368876
-0.001401776
-0.021517996
-0.0014965251
-0.021694185
-0.0015939064
-0.021899661
-0.0017069625
-0.022130018
-0.0018480168
-0.022378481
-0.0020247967
-0.02263905
-0.0022430586
-0.002542191
-0.02285216
-0.01994723
-0.001065917
-0.01997286
-0.0011328544
-0.020005891
-0.0011982914
-0.020046215
-0.0012673346
-0.020094211
-0.0013427358
-0.020150615
-0.0014273118
-0.020216336
-0.001520872
-0.020291131
-0.0016125512
-0.020374761
-0.001706719
-0.020467965
-0.0018154391
-0.020571965
-0.0019494383
-0.020686322
-0.0021144653
-0.020801216
-0.0023130514
-0.0025707319
-0.020900514
-0.019953468
-0.0011686731
-0.019967091
-0.0012356828
-0.019986703
-0.0013011847
-0.0200126
-0.0013701409
-0.020045319
-0.0014451458
-0.020085611
-0.0015286739
-0.020134207
-0.0016202277
-0.020190949
-0.0017098036
-0.020256069
-0.0018019993
-0.02033082
-0.0019084374
-0.020417313
-0.0020390571
-0.020517978
-0.0021983713
-0.020635032
-0.0023861957
-0.002619959
-0.020772104
-0.01995104
-0.0011637328
-0.019964325
-0.0012247279
-0.019983574
-0.0012843347
-0.0200091
-0.001347075
-0.020041451
-0.0014153066
-0.020081399
-0.0014912742
-0.020129673
-0.0015745211
-0.02018609
-0.0016559562
-0.020250887
-0.0017397649
-0.020325357
-0.0018365116
-0.020411692
-0.0019552164
-0.02051248
-0.0020999457
-0.020630255
-0.0022704722
-0.0024826347
-0.02076905
-0.019951065
-0.001156729
-0.019964305
-0.0012116298
-0.019983505
-0.0012652793
-0.02000898
-0.0013217483
-0.020041278
-0.0013831589
-0.020081173
-0.001451531
-0.020129392
-0.0015264529
-0.020185755
-0.001599744
-0.020250499
-0.0016751717
-0.020324917
-0.0017622432
-0.020411206
-0.0018690766
-0.020511966
-0.0019993286
-0.020629776
-0.0021527827
-0.0023436808
-0.020768798
-0.019951065
-0.0011495914
-0.019964304
-0.0011983922
-0.019983504
-0.0012460805
-0.020008978
-0.0012962752
-0.020041276
-0.0013508623
-0.02008117
-0.0014116376
-0.02012939
-0.0014782348
-0.020185752
-0.0015433824
-0.020250496
-0.0016104291
-0.020324914
-0.001687826
-0.020411202
-0.0017827889
-0.020511963
-0.0018985683
-0.020629775
-0.0020349716
-0.0022046585
-0.020768797
-0.019951065
-0.0011424526
-0.019964304
-0.0011851533
-0.019983504
-0.0012268805
-0.020008978
-0.001270801
-0.020041276
-0.0013185648
-0.02008117
-0.0013717429
-0.02012939
-0.0014300156
-0.020185752
-0.0014870197
-0.020250496
-0.0015456856
-0.020324914
-0.0016134078
-0.020411202
-0.0016965004
-0.020511963
-0.0017978073
-0.020629775
-0.0019171603
-0.0020656363
-0.020768797
-0.019951065
-0.0011353137
-0.019964304
-0.0011719144
-0.019983504
-0.0012076806
-0.020008978
-0.0012453267
-0.020041276
-0.001286267
-0.02008117
-0.0013318484
-0.02012939
-0.0013817964
-0.020185752
-0.0014306571
-0.020250496
-0.001480942
-0.020324914
-0.0015389898
-0.020411202
-0.0016102119
-0.020511963
-0.0016970464
-0.020629775
-0.0017993489
-0.0019266142
-0.020768797
-0.019951065
-0.001128175
-0.019964304
-0.0011586754
-0.019983504
-0.0011884807
-0.020008978
-0.0012198524
-0.020041276
-0.0012539693
-0.02008117
-0.0012919538
-0.02012939
-0.0013335771
-0.020185752
-0.0013742943
-0.020250496
-0.0014161985
-0.020324914
-0.0014645716
-0.020411202
-0.0015239234
-0.020511963
-0.0015962854
-0.020629775
-0.0016815376
-0.0017875919
-0.020768797
-0.019951065
-0.0011210361
-0.019964304
-0.0011454366
-0.019983504
-0.0011692806
-0.020008978
-0.001194378
-0.020041276
-0.0012216716
-0.02008117
-0.0012520592
-0.02012939
-0.0012853578
-0.020185752
-0.0013179316
-0.020250496
-0.001351455
-0.020324914
-0.0013901534
-0.020411202
-0.0014376349
-0.020511963
-0.0014955246
-0.020629775
-0.0015637262
-0.0016485697
-0.020768797
-0.019951065
-0.0011138973
-0.019964304
-0.0011321976
-0.019983504
-0.0011500807
-0.020008978
-0.0011689037
-0.020041276
-0.001189374
-0.02008117
-0.0012121646
-0.02012939
-0.0012371385
-0.020185752
-0.0012615689
-0.020250496
-0.0012867114
-0.020324914
-0.0013157353
-0.020411202
-0.0013513463
-0.020511963
-0.0013947637
-0.020629775
-0.0014459149
-0.0015095474
-0.020768797
-0.019951065
-0.0011067584
-0.019964304
-0.0011189587
-0.019983504
-0.0011308808
-0.020008978
-0.0011434294
-0.020041276
-0.0011570762
-0.02008117
-0.00117227
-0.02012939
-0.0011889194
-0.020185752
-0.0012052063
-0.020250496
-0.0012219678
-0.020324914
-0.0012413172
-0.020411202
-0.0012650578
-0.020511963
-0.0012940026
-0.020629775
-0.0013281035
-0.0013705253
-0.020768797
-0.019951065
-0.0010996197
-0.019964304
-0.0011057197
-0.019983504
-0.0011116808
-0.020008978
-0.0011179551
-0.020041276
-0.0011247786
-0.02008117
-0.0011323754
-0.02012939
-0.0011407001
-0.020185752
-0.0011488435
-0.020250496
-0.0011572244
-0.020324914
-0.001166899
-0.020411202
-0.0011787694
-0.020511963
-0.0011932418
-0.020629775
-0.0012102921
-0.001231503
-0.020768797
-0.019951065
-0.019964304
-0.019983504
-0.020008978
-0.020041276
-0.02008117
-0.02012939
-0.020185752
-0.020250496
-0.020324914
-0.020411202
-0.020511963
-0.020629775
-0.020768797
-0.020001021
0.017861321
0.02117956
-0.018043177
0.028806738
-0.01541765
0.038763335
-0.01231169
0.047426711
-0.0088281349
0.054385384
-0.0050609515
0.059368064
-0.0011294137
0.062211686
0.0028313241
0.062824534
0.0067213336
0.061148418
0.010462279
0.057224227
0.013904848
0.05126864
0.016861898
0.043543188
0.01917698
0.034310882
0.024282089
-0.020001021
0.016682782
0.02117956
-0.018043177
0.026848894
-0.01541765
0.036137808
-0.01231169
0.044320751
-0.0088281349
0.050901829
-0.0050609515
0.055600881
-0.0011294137
0.058280148
0.0028313241
0.058863796
0.0067213335
0.057258409
0.010462279
0.053483282
0.013904848
0.047826071
0.016861898
0.040586139
0.01917698
0.031995799
0.022690272
-0.020001021
0.015504242
0.02117956
-0.018043177
0.02489105
-0.01541765
0.033512281
-0.01231169
0.041214791
-0.0088281349
0.047418274
-0.0050609515
0.051833697
-0.0011294137
0.054348611
0.0028313241
0.054903059
0.0067213336
0.053368399
0.010462279
0.049742336
0.013904848
0.044383502
0.016861898
0.037629089
0.01917698
0.029680717
0.021098456
-0.020001021
0.014325702
0.02117956
-0.018043177
0.022933206
-0.01541765
0.030886755
-0.01231169
0.038108831
-0.0088281349
0.043934719
-0.0050609515
0.048066514
-0.0011294137
0.050417073
0.0028313241
0.050942321
0.0067213335
0.04947839
0.010462279
0.04600139
0.013904848
0.040940933
0.016861898
0.03467204
0.01917698
0.027365635
0.019506639
-0.020001021
0.013147163
0.02117956
-0.018043177
0.020975362
-0.01541765
0.028261228
-0.01231169
0.035002871
-0.0088281349
0.040451164
-0.0050609515
0.044299331
-0.0011294137
0.046485535
0.0028313241
0.046981583
0.0067213336
0.045588381
0.010462279
0.042260444
0.013904848
0.037498364
0.016861898
0.03171499
0.01917698
0.025050552
0.017914822
-0.020001021
0.011968623
0.02117956
-0.018043177
0.019017518
-0.01541765
0.025635701
-0.01231169
0.03189691
-0.0088281349
0.036967609
-0.0050609515
0.040532147
-0.0011294137
0.042553997
0.0028313241
0.043020845
0.0067213335
0.041698371
0.010462279
0.038519498
0.013904848
0.034055795
0.016861898
0.028757941
0.01917698
0.02273547
0.016323006
-0.020001021
0.010790083
0.02117956
-0.018043177
0.017059674
-0.01541765
0.023010175
-0.01231169
0.02879095
-0.0088281349
0.033484054
-0.0050609515
0.036764964
-0.0011294137
0.038622459
0.0028313241
0.039060107
0.0067213335
0.037808362
0.010462279
0.034778552
0.013904848
0.030613226
0.016861898
0.025800891
0.01917698
0.020420388
0.014731189
-0.020001021
0.0096115439
0.02117956
-0.018043177
0.01510183
-0.01541765
0.020384648
-0.01231169
0.02568499
-0.0088281349
0.030000499
-0.0050609515
0.03299778
-0.0011294137
0.034690921
0.0028313241
0.035099369
0.0067213335
0.033918352
0.010462279
0.031037606
0.013904848
0.027170657
0.016861898
0.022843841
0.01917698
0.018105306
0.013139372
-0.020001021
0.0084330044
0.02117956
-0.018043177
0.013143987
-0.01541765
0.017759123
-0.01231169
0.022579034
-0.0088281349
0.026516949
-0.0050609516
0.029230602
-0.0011294137
0.030759388
0.0028313242
0.031138636
0.0067213336
0.030028348
0.010462279
0.027296665
0.013904848
0.023728091
0.016861898
0.019886794
0.01917698
0.015790224
0.011547556
-0.020001021
0.0072544084
0.021179561
-0.018043177
0.011186061
-0.01541765
0.015133404
-0.01231169
0.019472859
-0.0088281349
0.023033155
-0.0050609501
0.025463183
-0.0011294135
0.026827658
0.0028313222
0.027177721
0.0067213321
0.026138112
0.010462278
0.023555479
0.013904848
0.020285318
0.016861898
0.016929578
0.019176981
0.013475055
0.0099556975
-0.020001226
0.0060739422
0.021179791
-0.018043401
0.0092267199
-0.015417881
0.01250727
-0.01231188
0.016367217
-0.0088283106
0.019551083
-0.0050611461
0.02169837
-0.0011294544
0.022898697
0.0028315127
0.023219617
0.0067216117
0.022250661
0.010462582
0.019816071
0.013905138
0.016843086
0.016862151
0.013971866
0.019177195
0.011158547
0.0083620703
-0.020005355
0.0046701757
0.0211828
-0.018048189
0.0069879473
-0.015423188
0.0095118897
-0.012317265
0.012737462
-0.0088327683
0.015364929
-0.0050629013
0.017069304
-0.0011299848
0.018023128
0.0028319948
0.018282912
0.0067243593
0.017459417
0.01046632
0.015407646
0.013909325
0.012918125
0.01686643
0.010640642
0.019181249
0.0085323155
0.0064996538
-0.020138918
0.0033335283
0.02129094
-0.01819848
0.0049138209
-0.015518261
0.0069459774
-0.01233914
0.010189651
-0.0088216068
0.01299698
-0.005068587
0.014845961
-0.0011599252
0.015904442
0.0028243773
0.016217595
0.0067974404
0.015219077
0.010635031
0.012729027
0.014120354
0.0099672535
0.017062217
0.0078535249
0.01933454
0.0062353544
0.0048474787
-0.02236736
0.022937889
-0.021253631
-0.019610108
-0.016440744
-0.01202155
-0.0070081634
-0.0016065725
0.0042034534
0.0098883423
0.014440542
0.017661378
0.01999094
0.021702265
-0.00087517929
0.020962259
-0.00065787767
0.020962259
-0.00044057613
0.020962259
-0.0002232745
0.020962259
-5.9729632e-06
0.020962259
0.00021132858
0.020962259
0.00042863011
0.020962259
0.00064593165
0.020962259
0.00086323313
0.020962259
0.0010804555
0.020962261
0.0012959455
0.020962664
0.0013678071
0.020967097
0.0014175373
0.021096154
0.0224418
-0.00090029174
0.02077007
-0.00070810265
0.02077007
-0.00051591356
0.02077007
-0.00032372447
0.02077007
-0.00013153529
0.02077007
6.0653882e-05
0.02077007
0.00025284297
0.02077007
0.00044503205
0.02077007
0.00063722057
0.02077007
0.00082928283
0.020770073
0.0010194116
0.020770484
0.0010773692
0.020775107
0.0011035058
0.020896522
0.02198829
-0.00091785355
0.020595442
-0.00074322626
0.020595442
-0.00056859889
0.020595442
-0.00039397161
0.020595442
-0.00021934441
0.020595442
-4.4717132e-05
0.020595442
0.00012991024
0.020595442
0.0003045375
0.020595442
0.00047916389
0.020595442
0.00065365217
0.020595446
0.00082617696
0.020595812
0.00088183476
0.02060011
0.00090707958
0.020703422
0.021613529
-0.00093181951
0.020434781
-0.0007711582
0.020434781
-0.00061049689
0.020434781
-0.00044983557
0.020434781
-0.00028917426
0.020434781
-0.00012851295
0.020434781
3.214828e-05
0.020434781
0.00019280966
0.020434781
0.00035346996
0.020434781
0.00051399649
0.020434784
0.00067263365
0.020435098
0.00072843594
0.020438937
0.00075649131
0.020523803
0.021291778
-0.00094321834
0.020285519
-0.00079395577
0.020285518
-0.00064469337
0.020285519
-0.00049543079
0.020285518
-0.0003461683
0.020285519