/*--------------------------------*- C++ -*----------------------------------*\
| =========                 |                                                 |
| \\      /  F ield         | OpenFOAM: The Open Source CFD Toolbox           |
|  \\    /   O peration     | Version:  2206                                  |
|   \\  /    A nd           | Website:  www.openfoam.com                      |
|    \\/     M anipulation  |                                                 |
\*---------------------------------------------------------------------------*/
FoamFile
{
    version     2.0;
    format      ascii;
    arch        "LSB;label=32;scalar=64";
    class       volVectorField;
    location    "0.02";
    object      U;
}
// * * * * * * * * * * * * * * * * * * * * * * * * * * * * * * * * * * * * * //

dimensions      [0 1 -1 0 0 0 0];

internalField   nonuniform List<vector> 
1396
(
(0.85671779 0.043699275 0)
(0.85671779 0.043699275 -1.0370437e-21)
(0.85671779 0.043699275 1.6273534e-21)
(0.85671779 0.043699275 1.1041483e-22)
(0.85671779 0.043699275 -8.4524787e-22)
(0.85671779 0.043699275 0)
(0.85671779 0.043699275 0)
(0.85671779 0.043699275 -1.6789471e-22)
(0.85671779 0.043699275 0)
(0.85671779 0.043699275 -2.2697388e-22)
(0.85671779 0.043699275 2.7543406e-22)
(0.85671779 0.043699275 7.0040941e-22)
(0.85671779 0.043699275 -1.5622653e-21)
(0.85671779 0.043699275 9.0985551e-22)
(0.85671779 0.043699275 2.9871404e-21)
(0.85671779 0.043699275 -1.3198842e-21)
(0.85671779 0.043699275 1.830783e-21)
(0.85671779 0.043699275 -8.8332131e-22)
(0.85671779 0.043699275 2.4149937e-22)
(0.85671779 0.043699275 -2.1314965e-21)
(0.85671779 0.043699275 1.1884722e-21)
(0.85671779 0.043699275 0)
(0.85671779 0.043699275 0)
(0.85671779 0.043699275 9.0786627e-22)
(0.85671779 0.043699275 -5.508423e-22)
(0.85671779 0.043699275 1.5645994e-33)
(0.85671779 0.043699275 7.2096692e-22)
(0.85671779 0.043699275 2.0108666e-21)
(0.85671779 0.043699275 -1.4057249e-21)
(0.85671779 0.043699275 1.5084494e-21)
(0.85671779 0.043699275 -2.0342136e-22)
(0.85671779 0.043699275 1.7666479e-21)
(0.85671779 0.043699275 -2.1734955e-21)
(0.85671779 0.043699275 -1.0657457e-21)
(0.85671779 0.043699275 -2.9711626e-22)
(0.85671779 0.043699275 1.3431242e-21)
(0.85671779 0.043699275 0)
(0.85671779 0.043699275 3.9137115e-34)
(0.85671779 0.043699275 0)
(0.85671779 0.043699275 -3.5016151e-22)
(0.85671779 0.043699275 -4.8060386e-22)
(0.85671779 0.043699275 -1.4361143e-21)
(0.85671779 0.043699275 -1.581452e-21)
(0.85671779 0.043699275 -1.8855734e-22)
(0.85671779 0.043699275 -2.0342236e-22)
(0.85671779 0.043699275 0)
(0.85671779 0.043699275 0)
(0.85671779 0.043699275 -1.0657451e-21)
(0.85671779 0.043699275 1.4855765e-21)
(0.85671779 0.043699275 0)
(0.85671779 0.043699275 0)
(0.85671779 0.043699275 -9.0782868e-22)
(0.85671779 0.043699275 -5.5080854e-22)
(0.85671779 0.043699275 1.4005927e-21)
(0.85671779 0.043699275 0)
(0.85671779 0.043699275 1.5316867e-21)
(0.85671779 0.043699275 -1.2300263e-21)
(0.85671779 0.043699275 1.8855844e-21)
(0.85671779 0.043699275 1.8308103e-21)
(0.85671779 0.043699275 -8.8333051e-22)
(0.85671779 0.043699275 -9.6600235e-22)
(0.85671779 0.043699275 0)
(0.85671779 0.043699275 0)
(0.85671779 0.043699275 0)
(0.85671779 0.043699275 7.7201655e-22)
(0.85671779 0.043699275 8.7590104e-34)
(0.85671779 0.043699275 -5.508007e-22)
(0.85671779 0.043699275 1.9234549e-34)
(0.85671779 0.043699275 -1.2013924e-21)
(0.85671779 0.043699275 -1.1486864e-21)
(0.85671779 0.043699275 -1.7571909e-22)
(0.85671779 0.043699275 5.656785e-22)
(0.85671779 0.043699275 -9.1540999e-22)
(0.85671779 0.043699275 0)
(0.85671779 0.043699275 4.8300325e-22)
(0.85671779 0.043699275 -8.5659276e-34)
(0.85671779 0.043699275 8.187253e-35)
(0.85671779 0.043699275 -6.7155741e-22)
(0.85671779 0.043699275 0)
(0.85671779 0.043699275 2.2695492e-22)
(0.85671779 0.043699275 -5.507988e-22)
(0.85671779 0.043699275 -5.2520664e-22)
(0.85671779 0.043699275 7.2082551e-22)
(0.85671779 0.043699275 7.657694e-22)
(0.85671779 0.043699275 3.5144144e-22)
(0.85671779 0.043699275 -3.7712108e-22)
(0.85671779 0.043699275 1.0171279e-22)
(0.85671779 0.043699275 -2.2083494e-22)
(0.85671779 0.043699275 4.8300602e-22)
(0.85671779 0.043699275 -2.6643921e-22)
(0.85671779 0.043699275 2.2668295e-27)
(0.85671779 0.043699275 0)
(0.85671779 0.043699275 0)
(0.85671779 0.043699275 2.2695641e-22)
(0.85671779 0.043699275 -6.8850328e-23)
(0.85671779 0.043699275 8.75351e-23)
(0.85671779 0.043699275 6.0069306e-23)
(0.85671779 0.043699275 -8.6151156e-22)
(0.85671779 0.043699275 -8.7861427e-23)
(0.85671779 0.043699275 9.4280347e-23)
(0.85671779 0.043699275 0)
(0.85671779 0.043699275 -3.3125276e-22)
(0.85671779 0.043699275 6.0375826e-22)
(0.85671779 0.043699275 -5.3287917e-22)
(0.85671779 0.043699275 -1.4856145e-22)
(0.85671779 0.043699275 -1.678907e-22)
(0.85671779 0.043699275 0)
(0.85671779 0.043699275 0)
(0.85671779 0.043699275 0)
(0.85671779 0.043699275 -8.7535515e-23)
(0.85671779 0.043699275 -3.0034856e-22)
(0.85671779 0.043699275 6.9400542e-22)
(0.85671779 0.043699275 -8.7859597e-23)
(0.85671779 0.043699275 -2.8283947e-22)
(0.85671779 0.043699275 -8.1369858e-22)
(0.85671779 0.043699275 7.729189e-22)
(0.85671779 0.043699275 1.20751e-22)
(0.85671779 0.043699275 0)
(0.85671779 0.043699275 1.485584e-22)
(0.85671779 0.043699275 5.0366952e-22)
(0.85671779 0.043699275 -7.7201987e-22)
(0.85671779 0.043699275 9.0782386e-22)
(0.85671779 0.043699275 -5.5080209e-22)
(0.85671779 0.043699275 0)
(0.85671779 0.043699275 4.8055604e-22)
(0.85671779 0.043699275 -7.1792319e-22)
(0.85671779 0.043699275 1.5814608e-21)
(0.85671779 0.043699275 -1.319908e-21)
(0.85671779 0.043699275 2.0342324e-22)
(0.85671779 0.043699275 -6.6249758e-22)
(0.85671779 0.043699275 9.6600214e-22)
(0.85671779 0.043699275 0)
(0.85671779 0.043699275 0)
(0.85671779 0.043699275 0)
(0.85671779 0.043699275 3.8600886e-22)
(0.85671779 0.043699275 -9.0782273e-22)
(0.85671779 0.043699275 5.5080261e-22)
(0.85671779 0.043699275 0)
(0.85671779 0.043699275 0)
(0.85671779 0.043699275 -9.5725314e-23)
(0.85671779 0.043699275 0)
(0.85671779 0.043699275 0)
(0.85671779 0.043699275 -2.0342189e-22)
(0.85671779 0.043699275 -1.7666501e-21)
(0.85671779 0.043699275 2.897993e-21)
(0.85671779 0.043699275 -3.6466615e-33)
(0.85671779 0.043699275 1.351122e-33)
(0.85671779 0.043699275 -1.6788923e-21)
(0.85671779 0.043699275 0)
(0.85671779 0.043699275 0)
(0.85671779 0.043699275 0)
(0.85671779 0.043699275 0)
(0.85671779 0.043699275 -9.6115367e-22)
(0.85671779 0.043699275 0)
(0.85671779 0.043699275 1.4057193e-21)
(0.85671779 0.043699275 0)
(0.85671779 0.043699275 0)
(0.85671779 0.043699275 -1.7666414e-21)
(0.85671779 0.043699275 1.9319891e-21)
(0.85671779 0.043699275 1.065742e-21)
(0.85671779 0.043699275 -1.1884611e-21)
(0.85671779 0.043699275 3.3578e-22)
(0.85671779 0.043699275 0)
(0.85671779 0.043699275 0)
(0.85671779 0.043699275 -5.5082133e-22)
(0.85671779 0.043699275 7.0032221e-22)
(0.85671779 0.043699275 1.9224159e-21)
(0.85671779 0.043699275 -9.5741273e-23)
(0.85671779 0.043699275 -2.8114117e-21)
(0.85671779 0.043699275 1.5084313e-21)
(0.85671779 0.043699275 0)
(0.85671779 0.043699275 0)
(0.85671779 0.043699275 0)
(0.85671779 0.043699275 -1.0657429e-21)
(0.85671779 0.043699275 1.1884662e-21)
(0.85671779 0.043699275 6.7156587e-22)
(0.85671779 0.043699275 -7.7203793e-22)
(0.85671779 0.043699275 4.5393096e-22)
(0.85671779 0.043699275 -1.1016795e-21)
(0.85671779 0.043699275 7.0035761e-22)
(0.85671779 0.043699275 -9.612853e-22)
(0.85671779 0.043699275 -1.4363286e-21)
(0.85671779 0.043699275 -1.4056183e-21)
(0.85671779 0.043699275 8.4843993e-22)
(0.85671779 0.043699275 7.9725892e-34)
(0.85671779 0.043699275 -9.9367014e-22)
(0.85671779 0.043699275 -1.2074166e-22)
(0.85671779 0.043699275 -5.3283894e-22)
(0.85671779 0.043699275 5.9419715e-22)
(0.85671779 0.043699275 1.678814e-22)
(0.85671779 0.043699275 -3.8599608e-22)
(0.85671779 0.043699275 6.8085673e-22)
(0.85671779 0.043699275 0)
(0.85671779 0.043699275 -3.501596e-22)
(0.85671779 0.043699275 6.0077259e-22)
(0.85671779 0.043699275 5.2663115e-22)
(0.85671779 0.043699275 0)
(0.85671779 0.043699275 1.0439832e-21)
(0.85671779 0.043699275 0)
(0.85671779 0.043699275 -1.1748854e-21)
(0.85671779 0.043699275 -1.25347e-21)
(0.85671779 0.043699275 0)
(0.85671779 0.043699275 0)
(0.85671779 0.043699275 1.5681332e-21)
(0.85671779 0.043699275 0)
(0.85671779 0.043699275 1.8833174e-21)
(0.85671779 0.043699275 0)
(0.85671779 0.043699275 -2.3570731e-21)
(0.85671779 0.043699275 2.6961917e-21)
(0.85671779 0.043699275 -3.1492886e-21)
(0.85671779 0.043699275 0)
(0.85671779 0.043699275 0)
(0.85671779 0.043699275 1.1055733e-21)
(0.85671779 0.043699275 0)
(0.85671779 0.043699275 0)
(0.85671779 0.043699275 1.3433211e-21)
(0.85671779 0.043699275 0)
(0.85671779 0.043699275 0)
(0.85671779 0.043699275 0)
(0.85671779 0.043699275 0)
(0.85671779 0.043699275 2.0937312e-21)
(0.85671779 0.043699275 -2.3570743e-21)
(0.85671779 0.043699275 -2.6961934e-21)
(0.85671779 0.043699275 3.1492909e-21)
(0.85671779 0.043699275 0)
(0.85671779 0.043699275 0)
(0.85671779 0.043699275 -1.1055736e-21)
(0.85671779 0.043699275 0)
(0.85671779 0.043699275 1.2534707e-21)
(0.85671779 0.043699275 -1.3433215e-21)
(0.85671779 0.043699275 1.4470483e-21)
(0.85671779 0.043699275 0)
(0.85671779 0.043699275 -1.7113355e-21)
(0.85671779 0.043699275 0)
(0.85671779 0.043699275 -2.0937322e-21)
(0.85671779 0.043699275 2.3570756e-21)
(0.85671779 0.043699275 5.3923902e-21)
(0.85671779 0.043699275 -3.1492932e-21)
(0.85671779 0.043699275 0)
(0.85671779 0.043699275 -5.2199199e-22)
(0.85671779 0.043699275 0)
(0.85671779 0.043699275 -5.8744319e-22)
(0.85671779 0.043699275 -1.2534711e-21)
(0.85671779 0.043699275 -6.7166098e-22)
(0.85671779 0.043699275 -7.235244e-22)
(0.85671779 0.043699275 0)
(0.85671779 0.043699275 1.7113361e-21)
(0.85671779 0.043699275 0)
(0.85671779 0.043699275 1.0468666e-21)
(0.85671779 0.043699275 0)
(0.85671779 0.043699275 -1.3480984e-21)
(0.85671779 0.043699275 0)
(0.85671779 0.043699275 0)
(0.85671779 0.043699275 1.5621168e-33)
(0.85671779 0.043699275 -5.5278708e-22)
(0.85671779 0.043699275 1.1748867e-21)
(0.85671779 0.043699275 -6.2673572e-22)
(0.85671779 0.043699275 6.7166119e-22)
(0.85671779 0.043699275 9.9646104e-34)
(0.85671779 0.043699275 0)
(0.85671779 0.043699275 8.5566841e-22)
(0.85671779 0.043699275 0)
(0.85671779 0.043699275 -2.0937342e-21)
(0.85671779 0.043699275 0)
(0.85671779 0.043699275 -2.6961984e-21)
(0.85671779 0.043699275 -1.5746489e-21)
(0.85671779 0.043699275 4.944473e-22)
(0.85671779 0.043699275 1.0439845e-21)
(0.85671779 0.043699275 1.1055744e-21)
(0.85671779 0.043699275 -5.8744351e-22)
(0.85671779 0.043699275 1.2534718e-21)
(0.85671779 0.043699275 -6.716614e-22)
(0.85671779 0.043699275 1.3771329e-33)
(0.85671779 0.043699275 0)
(0.85671779 0.043699275 -8.5566875e-22)
(0.85671779 0.043699275 9.4166074e-22)
(0.85671779 0.043699275 1.0468676e-21)
(0.85671779 0.043699275 1.1785397e-21)
(0.85671779 0.043699275 1.3481001e-21)
(0.85671779 0.043699275 1.57465e-21)
(0.85671779 0.043699275 -4.9444741e-22)
(0.85671779 0.043699275 1.8776706e-35)
(0.85671779 0.043699275 -5.5278736e-22)
(0.85671779 0.043699275 0)
(0.85671779 0.043699275 -6.2673608e-22)
(0.85671779 0.043699275 1.3433232e-21)
(0.85671779 0.043699275 -7.2352513e-22)
(0.85671779 0.043699275 -7.8406833e-22)
(0.85671779 0.043699275 0)
(0.85671779 0.043699275 -9.4166115e-22)
(0.85671779 0.043699275 -1.0468681e-21)
(0.85671779 0.043699275 -1.7178544e-33)
(0.85671779 0.043699275 0)
(0.85671779 0.043699275 -1.5746512e-21)
(0.85671779 0.043699275 0)
(0.85671779 0.043699275 -4.0109139e-34)
(0.85671779 0.043699275 0)
(0.85671779 0.043699275 0)
(0.85671779 0.043699275 0)
(0.85671779 0.043699275 -1.3433236e-21)
(0.85671779 0.043699275 0)
(0.85671779 0.043699275 7.8406861e-22)
(0.85671779 0.043699275 8.5566943e-22)
(0.85671779 0.043699275 9.4166156e-22)
(0.85671779 0.043699275 1.0468686e-21)
(0.85671779 0.043699275 -2.357082e-21)
(0.85671779 0.043699275 0)
(0.85671779 0.043699275 1.5746523e-21)
(0.85671779 0.043699275 0)
(0.85671779 0.043699275 -2.6099631e-22)
(0.85671779 0.043699275 0)
(0.85671779 0.043699275 -2.9372199e-22)
(0.85671779 0.043699275 0)
(0.85671779 0.043699275 6.7166202e-22)
(0.85671779 0.043699275 0)
(0.85671779 0.043699275 3.9203445e-22)
(0.85671779 0.043699275 -8.5566977e-22)
(0.85671779 0.043699275 -9.4166197e-22)
(0.85671779 0.043699275 0)
(0.85671779 0.043699275 1.1785417e-21)
(0.85671779 0.043699275 -6.7405129e-22)
(0.85671779 0.043699275 0)
(0.85671779 0.043699275 0)
(0.85671779 0.043699275 -2.6099637e-22)
(0.85671779 0.043699275 0)
(0.85671779 0.043699275 5.8744414e-22)
(0.85671779 0.043699275 -3.1336832e-22)
(0.85671779 0.043699275 0)
(0.85671779 0.043699275 -7.2352585e-22)
(0.85671779 0.043699275 -3.9203459e-22)
(0.85671779 0.043699275 0)
(0.85671779 0.043699275 0)
(0.85671779 0.043699275 0)
(0.85671779 0.043699275 0)
(0.85671779 0.043699275 1.3481034e-21)
(0.85671779 0.043699275 0)
(0.85671779 0.043699275 0)
(0.85671779 0.043699275 0)
(0.85671779 0.043699275 0)
(0.85671779 0.043699275 -5.874443e-22)
(0.85671779 0.043699275 -3.8068183e-34)
(0.85671779 0.043699275 3.3583122e-22)
(0.85671779 0.043699275 7.2352609e-22)
(0.85671779 0.043699275 0)
(0.85671779 0.043699275 4.2783522e-22)
(0.85671779 0.043699275 -4.708314e-22)
(0.85671779 0.043699275 5.2343507e-22)
(0.85671779 0.043699275 -5.8927148e-22)
(0.85671779 0.043699275 -6.7405213e-22)
(0.85671779 0.043699275 0)
(0.85671779 0.043699275 1.2361199e-22)
(0.85671779 0.043699275 1.3049825e-22)
(0.85671779 0.043699275 1.3819702e-22)
(0.85671779 0.043699275 2.9372223e-22)
(0.85671779 0.043699275 3.133685e-22)
(0.85671779 0.043699275 -3.3583132e-22)
(0.85671779 0.043699275 -1.8088158e-22)
(0.85671779 0.043699275 0)
(0.85671779 0.043699275 -4.2783539e-22)
(0.85671779 0.043699275 2.354158e-22)
(0.85671779 0.043699275 -5.2343533e-22)
(0.85671779 0.043699275 8.839077e-22)
(0.85671779 0.043699275 0)
(0.85671779 0.043699275 3.9366423e-22)
(0.85671779 0.043699275 -1.2361202e-22)
(0.85671779 0.043699275 -1.3049828e-22)
(0.85671779 0.043699275 -2.0729558e-22)
(0.85671779 0.043699275 -7.3430578e-23)
(0.85671779 0.043699275 7.8342147e-23)
(0.85671779 0.043699275 0)
(0.85671779 0.043699275 2.7132247e-22)
(0.85671779 0.043699275 -9.8008754e-23)
(0.85671779 0.043699275 0)
(0.85671779 0.043699275 2.354159e-22)
(0.85671779 0.043699275 0)
(0.85671779 0.043699275 -4.4195409e-22)
(0.85671779 0.043699275 0)
(0.85671779 0.043699275 -5.9049678e-22)
(0.85671779 0.043699275 0)
(0.85671779 0.043699275 0)
(0.85671779 0.043699275 6.9098544e-23)
(0.85671779 0.043699275 7.3430598e-23)
(0.85671779 0.043699275 -7.834217e-23)
(0.85671779 0.043699275 0)
(0.85671779 0.043699275 -9.0440853e-23)
(0.85671779 0.043699275 9.800879e-23)
(0.85671779 0.043699275 0)
(0.85671779 0.043699275 0)
(0.85671779 0.043699275 0)
(0.85671779 0.043699275 1.4731811e-22)
(0.85671779 0.043699275 0)
(0.85671779 0.043699275 1.968324e-22)
(0.85671779 0.043699275 0)
(0.85671779 0.043699275 0)
(0.85671779 0.043699275 0)
(0.85671779 0.043699275 0)
(0.85671779 0.043699275 0)
(0.85671779 0.043699275 0)
(0.85671779 0.043699275 0)
(0.85671779 0.043699275 5.3412336e-24)
(0.85671779 0.043699275 7.9562236e-36)
(0.85671779 0.043699275 -5.3412277e-24)
(0.85671779 0.043699275 0)
(0.85671779 0.043699275 0)
(0.85671779 0.043699275 0)
(0.85671779 0.043699275 1.0682432e-23)
(0.85671779 0.043699275 0)
(0.85671779 0.043699275 -1.3344842e-24)
(0.85671779 0.043699275 1.3344835e-24)
(0.85671779 0.043699275 2.6689655e-24)
(0.85671779 0.043699275 2.668964e-24)
(0.85671779 0.043699275 -5.337925e-24)
(0.85671779 0.043699275 0)
(0.85671779 0.043699275 0)
(0.85671779 0.043699275 0)
(0.85671779 0.043699275 0)
(0.85671779 0.043699275 0)
(0.85671779 0.043699275 1.0675815e-23)
(0.85671779 0.043699275 -2.1351618e-23)
(0.85671779 0.043699275 1.0675803e-23)
(0.85671779 0.043699275 -6.6682868e-25)
(0.85671779 0.043699275 6.6682831e-25)
(0.85671779 0.043699275 0)
(0.85671779 0.043699275 0)
(0.85671779 0.043699275 0)
(0.85671779 0.043699275 0)
(0.85671779 0.043699275 0)
(0.85671779 0.043699275 5.3346088e-24)
(0.85671779 0.043699275 -5.3346059e-24)
(0.85671779 0.043699275 0)
(0.85671779 0.043699275 0)
(0.85671779 0.043699275 0)
(0.85671779 0.043699275 0)
(0.85671779 0.043699275 1.0669182e-23)
(0.85671779 0.043699275 5.3313026e-24)
(0.85671779 0.043699275 5.0589109e-36)
(0.85671779 0.043699275 -5.3312968e-24)
(0.85671779 0.043699275 0)
(0.85671779 0.043699275 0)
(0.85671779 0.043699275 0)
(0.85671779 0.043699275 0)
(0.85671779 0.043699275 0)
(0.85671779 0.043699275 0)
(0.85671779 0.043699275 0)
(0.85671779 0.043699275 0)
(0.85671779 0.043699275 0)
(0.85671779 0.043699275 -4.9444922e-22)
(0.85671779 0.043699275 4.9444911e-22)
(0.85671779 0.043699275 0)
(0.85671779 0.043699275 0)
(0.85671779 0.043699275 0)
(0.85671779 0.043699275 0)
(0.85671779 0.043699275 -1.2361214e-22)
(0.85671779 0.043699275 1.2361211e-22)
(0.85671779 0.043699275 0)
(0.85671779 0.043699275 -1.04399e-21)
(0.85671779 0.043699275 0)
(0.85671779 0.043699275 0)
(0.85671779 0.043699275 5.2199464e-22)
(0.85671779 0.043699275 -1.5841461e-33)
(0.85671779 0.043699275 -1.0439888e-21)
(0.85671779 0.043699275 -1.3248057e-33)
(0.85671779 0.043699275 -8.9966223e-34)
(0.85671779 0.043699275 2.60997e-22)
(0.85671779 0.043699275 2.6099694e-22)
(0.85671779 0.043699275 0)
(0.85671779 0.043699275 -1.3049841e-22)
(0.85671779 0.043699275 1.3049838e-22)
(0.85671779 0.043699275 0)
(0.85671779 0.043699275 0)
(0.85671779 0.043699275 -1.1055804e-21)
(0.85671779 0.043699275 1.1055801e-21)
(0.85671779 0.043699275 0)
(0.85671779 0.043699275 5.5278977e-22)
(0.85671779 0.043699275 -1.1055793e-21)
(0.85671779 0.043699275 5.5278948e-22)
(0.85671779 0.043699275 0)
(0.85671779 0.043699275 0)
(0.85671779 0.043699275 0)
(0.85671779 0.043699275 0)
(0.85671779 0.043699275 -1.3819719e-22)
(0.85671779 0.043699275 2.0729574e-22)
(0.85671779 0.043699275 -6.9098562e-23)
(0.85671779 0.043699275 1.174894e-21)
(0.85671779 0.043699275 0)
(0.85671779 0.043699275 0)
(0.85671779 0.043699275 5.8744654e-22)
(0.85671779 0.043699275 -1.1748928e-21)
(0.85671779 0.043699275 5.8744622e-22)
(0.85671779 0.043699275 0)
(0.85671779 0.043699275 0)
(0.85671779 0.043699275 2.9372287e-22)
(0.85671779 0.043699275 -5.8744558e-22)
(0.85671779 0.043699275 2.9372271e-22)
(0.85671779 0.043699275 0)
(0.85671779 0.043699275 7.3430638e-23)
(0.85671779 0.043699275 -7.3430618e-23)
(0.85671779 0.043699275 1.2534798e-21)
(0.85671779 0.043699275 0)
(0.85671779 0.043699275 -1.2534791e-21)
(0.85671779 0.043699275 1.2534787e-21)
(0.85671779 0.043699275 6.2673917e-22)
(0.85671779 0.043699275 -1.253478e-21)
(0.85671779 0.043699275 6.2673881e-22)
(0.85671779 0.043699275 0)
(0.85671779 0.043699275 0)
(0.85671779 0.043699275 3.1336913e-22)
(0.85671779 0.043699275 6.948449e-34)
(0.85671779 0.043699275 -3.1336895e-22)
(0.85671779 0.043699275 0)
(0.85671779 0.043699275 0)
(0.85671779 0.043699275 0)
(0.85671779 0.043699275 -1.3433316e-21)
(0.85671779 0.043699275 1.3433311e-21)
(0.85671779 0.043699275 0)
(0.85671779 0.043699275 0)
(0.85671779 0.043699275 6.7166494e-22)
(0.85671779 0.043699275 -1.3433295e-21)
(0.85671779 0.043699275 1.3433291e-21)
(0.85671779 0.043699275 -6.7166432e-22)
(0.85671779 0.043699275 0)
(0.85671779 0.043699275 0)
(0.85671779 0.043699275 0)
(0.85671779 0.043699275 0)
(0.85671779 0.043699275 0)
(0.85671779 0.043699275 0)
(0.85671779 0.043699275 0)
(0.85671779 0.043699275 -1.4470595e-21)
(0.85671779 0.043699275 7.2352948e-22)
(0.85671779 0.043699275 -6.4680011e-34)
(0.85671779 0.043699275 8.0327855e-35)
(0.85671779 0.043699275 7.2352876e-22)
(0.85671779 0.043699275 0)
(0.85671779 0.043699275 0)
(0.85671779 0.043699275 7.2352803e-22)
(0.85671779 0.043699275 -7.2352779e-22)
(0.85671779 0.043699275 1.8088189e-22)
(0.85671779 0.043699275 -2.7132274e-22)
(0.85671779 0.043699275 9.0440883e-23)
(0.85671779 0.043699275 -1.5681486e-21)
(0.85671779 0.043699275 0)
(0.85671779 0.043699275 0)
(0.85671779 0.043699275 0)
(0.85671779 0.043699275 7.8407316e-22)
(0.85671779 0.043699275 -7.8407288e-22)
(0.85671779 0.043699275 7.840726e-22)
(0.85671779 0.043699275 -7.8407231e-22)
(0.85671779 0.043699275 0)
(0.85671779 0.043699275 0)
(0.85671779 0.043699275 0)
(0.85671779 0.043699275 0)
(0.85671779 0.043699275 9.8008861e-23)
(0.85671779 0.043699275 -9.8008826e-23)
(0.85671779 0.043699275 0)
(0.85671779 0.043699275 0)
(0.85671779 0.043699275 1.7113511e-21)
(0.85671779 0.043699275 -1.7113504e-21)
(0.85671779 0.043699275 -8.5567485e-22)
(0.85671779 0.043699275 8.5567451e-22)
(0.85671779 0.043699275 0)
(0.85671779 0.043699275 0)
(0.85671779 0.043699275 0)
(0.85671779 0.043699275 0)
(0.85671779 0.043699275 -4.2783641e-22)
(0.85671779 0.043699275 4.2783624e-22)
(0.85671779 0.043699275 0)
(0.85671779 0.043699275 0)
(0.85671779 0.043699275 -1.8833395e-21)
(0.85671779 0.043699275 0)
(0.85671779 0.043699275 0)
(0.85671779 0.043699275 0)
(0.85671779 0.043699275 0)
(0.85671779 0.043699275 -9.4166771e-22)
(0.85671779 0.043699275 9.416673e-22)
(0.85671779 0.043699275 -9.4166689e-22)
(0.85671779 0.043699275 9.4166648e-22)
(0.85671779 0.043699275 0)
(0.85671779 0.043699275 4.7083283e-22)
(0.85671779 0.043699275 -2.3541631e-22)
(0.85671779 0.043699275 -2.3541621e-22)
(0.85671779 0.043699275 0)
(0.85671779 0.043699275 0)
(0.85671779 0.043699275 -2.0937565e-21)
(0.85671779 0.043699275 4.187511e-21)
(0.85671779 0.043699275 -3.1406317e-21)
(0.85671779 0.043699275 2.0937535e-21)
(0.85671779 0.043699275 -1.0468762e-21)
(0.85671779 0.043699275 1.0468757e-21)
(0.85671779 0.043699275 -1.0468752e-21)
(0.85671779 0.043699275 0)
(0.85671779 0.043699275 0)
(0.85671779 0.043699275 -5.2343685e-22)
(0.85671779 0.043699275 5.234366e-22)
(0.85671779 0.043699275 0)
(0.85671779 0.043699275 0)
(0.85671779 0.043699275 2.3571078e-21)
(0.85671779 0.043699275 2.3571065e-21)
(0.85671779 0.043699275 -2.3571052e-21)
(0.85671779 0.043699275 0)
(0.85671779 0.043699275 0)
(0.85671779 0.043699275 -1.1785507e-21)
(0.85671779 0.043699275 -9.1591736e-35)
(0.85671779 0.043699275 2.3570988e-21)
(0.85671779 0.043699275 -1.1785487e-21)
(0.85671779 0.043699275 0)
(0.85671779 0.043699275 5.8927373e-22)
(0.85671779 0.043699275 -8.8391011e-22)
(0.85671779 0.043699275 4.4195481e-22)
(0.85671779 0.043699275 -1.4731819e-22)
(0.85671779 0.043699275 -2.6962371e-21)
(0.85671779 0.043699275 2.6962354e-21)
(0.85671779 0.043699275 -2.6962338e-21)
(0.85671779 0.043699275 -1.348116e-21)
(0.85671779 0.043699275 2.6962304e-21)
(0.85671779 0.043699275 -1.3481144e-21)
(0.85671779 0.043699275 -1.3481135e-21)
(0.85671779 0.043699275 1.3481127e-21)
(0.85671779 0.043699275 6.7405592e-22)
(0.85671779 0.043699275 -1.348111e-21)
(0.85671779 0.043699275 6.7405508e-22)
(0.85671779 0.043699275 0)
(0.85671779 0.043699275 0)
(0.85671779 0.043699275 0)
(0.85671779 0.043699275 3.1493506e-21)
(0.85671779 0.043699275 -3.1493483e-21)
(0.85671779 0.043699275 3.149346e-21)
(0.85671779 0.043699275 0)
(0.85671779 0.043699275 1.5746707e-21)
(0.85671779 0.043699275 -1.5746696e-21)
(0.85671779 0.043699275 0)
(0.85671779 0.043699275 0)
(0.85671779 0.043699275 0)
(0.85671779 0.043699275 0)
(0.85671779 0.043699275 0)
(0.85671779 0.043699275 -3.9366567e-22)
(0.85671779 0.043699275 5.9049807e-22)
(0.85671779 0.043699275 -1.9683255e-22)
(0.85671779 0.043699275 0)
(0.85671779 0.043699275 0)
(0.85671779 0.043699275 0)
(0.85671779 0.043699275 2.1358259e-23)
(0.85671779 0.043699275 0)
(0.85671779 0.043699275 0)
(0.85671779 0.043699275 0)
(0.85671779 0.043699275 0)
(0.85671779 0.043699275 -2.1279055e-23)
(0.85671779 0.043699275 0)
(0.85671779 0.043699275 -2.1331823e-23)
(0.85671779 0.043699275 0)
(0.85671779 0.043699275 2.1279078e-23)
(0.85671779 0.043699275 2.130543e-23)
(0.85671779 0.043699275 4.2663694e-23)
(0.85671779 0.043699275 0)
(0.85671779 0.043699275 0)
(0.85671779 0.043699275 -2.1305453e-23)
(0.85671779 0.043699275 -2.133187e-23)
(0.85671779 0.043699275 0)
(0.85671779 0.043699275 -1.0639563e-23)
(0.85671779 0.043699275 -1.0652738e-23)
(0.85671779 0.043699275 0)
(0.85671779 0.043699275 -1.0679188e-23)
(0.85671779 0.043699275 1.0639574e-23)
(0.85671779 0.043699275 1.065275e-23)
(0.85671779 0.043699275 0)
(0.85671779 0.043699275 1.06792e-23)
(0.85671779 0.043699275 0)
(0.85671779 0.043699275 0)
(0.85671779 0.043699275 -1.066597e-23)
(0.85671779 0.043699275 0)
(0.85671779 0.043699275 0)
(0.85671779 0.043699275 0)
(0.85671779 0.043699275 2.1331964e-23)
(0.85671779 0.043699275 0)
(0.85671779 0.043699275 0)
(0.85671779 0.043699275 -5.3263926e-24)
(0.85671779 0.043699275 -1.0665994e-23)
(0.85671779 0.043699275 -5.3396177e-24)
(0.85671779 0.043699275 0)
(0.85671779 0.043699275 5.326393e-24)
(0.85671779 0.043699275 0)
(0.85671779 0.043699275 1.1310943e-35)
(0.85671779 0.043699275 0)
(0.85671779 0.043699275 0)
(0.85671779 0.043699275 0)
(0.85671779 0.043699275 5.3396126e-24)
(0.85671779 0.043699275 0)
(0.85671779 0.043699275 0)
(0.85671779 0.043699275 1.3332465e-24)
(0.85671779 0.043699275 0)
(0.85671779 0.043699275 0)
(0.85671779 0.043699275 0)
(0.85671779 0.043699275 -1.333245e-24)
(0.85671779 0.043699275 0)
(0.85671779 0.043699275 -3.4351448e-22)
(0.85671779 0.043699275 3.2899103e-22)
(0.85671779 0.043699275 -3.1405343e-22)
(0.85671779 0.043699275 1.3938573e-22)
(0.85671779 0.043699275 2.0583134e-35)
(0.85671779 0.043699275 -1.4353805e-22)
(0.85671779 0.043699275 -4.1630969e-23)
(0.85671779 0.043699275 0)
(0.85671779 0.043699264 -4.292895e-23)
(0.8567178 0.043698722 0)
(0.85671796 0.043635768 -6.6464983e-23)
(0.85671248 0.043333379 -3.378812e-23)
(0.85620228 0.02742414 5.8395523e-23)
(0.85862298 0.027607816 -4.6384872e-23)
(0.85671779 0.043699275 3.8848789e-23)
(0.85671779 0.043699275 -3.9402156e-22)
(0.85671779 0.043699275 3.1977213e-22)
(0.85671779 0.043699275 4.0557571e-23)
(0.85671779 0.043699275 -8.2322135e-23)
(0.85671779 0.043699275 0)
(0.85671779 0.043699275 2.1211796e-22)
(0.85671779 0.043699275 -8.6168703e-23)
(0.85671779 0.043699263 -1.3129806e-22)
(0.85671781 0.043698673 8.8937805e-23)
(0.85671903 0.04363483 -6.5918543e-27)
(0.856723 0.043344701 9.1894223e-23)
(0.85651945 0.028797977 -9.3491073e-23)
(0.85898023 0.029181932 -4.8399631e-23)
(0.85671779 0.043699275 -3.9508357e-22)
(0.85671779 0.043699275 7.2139611e-22)
(0.85671779 0.043699275 -4.0663408e-22)
(0.85671779 0.043699275 0)
(0.85671779 0.043699275 2.2861886e-35)
(0.85671779 0.043699275 -2.5517055e-22)
(0.85671779 0.043699275 8.637741e-23)
(0.85671779 0.043699275 -2.6321887e-22)
(0.85671779 0.043699258 2.6743646e-22)
(0.85671782 0.043698646 0)
(0.85671971 0.043636867 0)
(0.85672982 0.04337339 0)
(0.85674745 0.030630646 9.5304769e-23)
(0.85945105 0.031105759 2.455388e-23)
(0.85671779 0.043699275 8.0285295e-23)
(0.85671779 0.043699275 0)
(0.85671779 0.043699275 5.0381096e-36)
(0.85671779 0.043699275 1.6779555e-22)
(0.85671779 0.043699275 -2.5552584e-22)
(0.85671779 0.043699275 4.3246144e-22)
(0.85671779 0.043699275 -2.4520005e-35)
(0.85671779 0.043699275 -1.7850478e-22)
(0.85671779 0.04369926 2.7209872e-22)
(0.85671783 0.043698623 0)
(0.85672018 0.043640494 -1.159685e-26)
(0.85673447 0.043413626 9.5335195e-23)
(0.85690474 0.032658037 2.4625987e-23)
(0.8596432 0.033170117 -3.0825011e-23)
(0.85673118 0.043465739 9.6962749e-23)
(0.85701823 0.03478882 -4.9925783e-23)
(0.85993875 0.035378549 3.7409621e-23)
(0.85855089 0.02590994 -6.7430826e-23)
(0.85853826 0.024780966 -1.5852586e-22)
(0.8584483 0.023649929 9.0719801e-23)
(0.85845738 0.022472147 -4.3867891e-23)
(0.85844669 0.021238291 4.0421189e-22)
(0.8583076 0.019981723 8.788642e-23)
(0.85803307 0.018758078 -4.4005171e-22)
(0.85788942 0.017524657 0)
(0.85808472 0.016107459 -8.3870385e-23)
(0.85844759 0.014413863 -8.6462393e-23)
(0.85859396 0.012526431 6.8639445e-22)
(0.85806215 0.010753006 -1.350967e-21)
(0.8564639 0.0095530021 3.3868452e-22)
(0.85439535 0.0078525668 -3.1792552e-22)
(0.85584094 0.026424329 4.3291541e-23)
(0.85567138 0.02543784 1.2714897e-22)
(0.85546739 0.02447966 -8.355825e-23)
(0.85525012 0.023494785 -2.4802021e-22)
(0.85499641 0.022469958 3.2896845e-22)
(0.8547 0.021420135 -1.6705119e-22)
(0.85437596 0.020398071 8.4587193e-23)
(0.85404537 0.019425248 -5.6492694e-22)
(0.85366464 0.018405614 8.3411227e-23)
(0.85318036 0.017240316 6.3264519e-22)
(0.85254744 0.01590888 -5.4698419e-22)
(0.85174633 0.014535612 1.2330996e-21)
(0.85078682 0.013534535 -4.4659084e-22)
(0.84959104 0.013910197 9.200102e-24)
(0.85670471 0.043330455 3.9642396e-23)
(0.85670722 0.043311171 7.899833e-23)
(0.85670374 0.043299898 -2.7526674e-22)
(0.85670057 0.043290122 4.6947755e-22)
(0.85669698 0.043282058 -3.890274e-22)
(0.85669267 0.043276255 -2.3183199e-22)
(0.8566881 0.043273423 -3.836242e-22)
(0.85668433 0.043273474 -7.6164125e-23)
(0.85668136 0.043275795 5.2797115e-22)
(0.85667826 0.043281092 0)
(0.85667384 0.043292581 -6.8375067e-26)
(0.85666612 0.04331782 -7.2883357e-23)
(0.8566528 0.043371329 0)
(0.85664037 0.043461536 1.4138666e-22)
(0.85671541 0.04364009 -7.4906896e-23)
(0.85671507 0.043637197 3.7316487e-23)
(0.85671462 0.043634937 3.716623e-23)
(0.85671414 0.043632768 -3.6988689e-23)
(0.85671361 0.043630714 -2.2068562e-22)
(0.85671302 0.043628919 5.8490198e-22)
(0.85671242 0.043627574 -2.1780914e-22)
(0.85671183 0.043626597 -6.4847723e-22)
(0.8567112 0.043625683 1.2860932e-21)
(0.85671043 0.043624668 -5.6627426e-22)
(0.85670946 0.043623633 -7.0057081e-23)
(0.85670833 0.043623176 6.9212416e-22)
(0.85670733 0.043625866 -5.4625089e-22)
(0.85670674 0.043636888 0)
(0.85671778 0.043698768 1.7744784e-23)
(0.85671777 0.04369875 -1.7684126e-23)
(0.85671777 0.043698745 -1.0568245e-22)
(0.85671777 0.043698744 4.2081393e-22)
(0.85671776 0.043698746 -3.4888105e-23)
(0.85671776 0.043698754 -5.2029295e-22)
(0.85671776 0.043698767 3.4460495e-22)
(0.85671776 0.043698784 -4.7897957e-22)
(0.85671775 0.043698805 4.7520254e-22)
(0.85671775 0.04369883 0)
(0.85671775 0.043698865 5.3306083e-22)
(0.85671775 0.04369892 -5.9303359e-22)
(0.85671775 0.043699017 0)
(0.85671777 0.043699162 -1.2826175e-22)
(0.85671779 0.043699262 1.6861717e-23)
(0.85671779 0.043699262 -5.0419779e-23)
(0.85671779 0.043699262 -3.348584e-23)