/*--------------------------------*- C++ -*----------------------------------*\
| =========                 |                                                 |
| \\      /  F ield         | OpenFOAM: The Open Source CFD Toolbox           |
|  \\    /   O peration     | Version:  2206                                  |
|   \\  /    A nd           | Website:  www.openfoam.com                      |
|    \\/     M anipulation  |                                                 |
\*---------------------------------------------------------------------------*/
FoamFile
{
    version     2.0;
    format      ascii;
    arch        "LSB;label=32;scalar=64";
    class       volScalarField;
    location    "0.000120005";
    object      yPlus;
}
// * * * * * * * * * * * * * * * * * * * * * * * * * * * * * * * * * * * * * //

dimensions      [0 0 0 0 0 0 0];

internalField   uniform 0;

boundaryField
{
    Side
    {
        type            empty;
    }
    Inlet
    {
        type            calculated;
        value           uniform 0;
    }
    Outlet
    {
        type            calculated;
        value           uniform 0;
    }
    Flap
    {
        type            calculated;
        value           nonuniform List<scalar> 
107
(
7.76583
9.36816
9.96182
10.5545
10.9712
11.404
11.7541
12.0074
12.2135
12.3714
12.4685
12.5163
12.4882
12.404
12.2439
12.0538
11.8238
11.5891
11.3838
11.2081
11.0523
10.8966
10.7346
10.5399
10.1786
9.90909
10.0875
10.6796
9.18225
13.517
13.5213
13.538
13.5858
13.6956
13.9077
14.2561
14.7428
15.3193
15.8224
16.1703
16.3679
16.4663
16.4906
16.4628
16.4075
16.3402
16.2702
16.2037
16.1447
16.0866
16.035
15.9821
15.9115
15.8131
15.6526
15.3442
14.8907
15.836
19.7853
19.51
21.0412
23.6181
23.9666
26.6959
27.0617
27.6776
27.6228
27.2157
26.5696
25.8133
24.8231
23.9055
22.8082
21.9285
20.9791
20.2192
19.5046
18.9323
18.35
17.8743
17.4624
17.0556
16.8213
16.5491
16.3748
16.2167
16.0325
15.8839
15.75
15.6005
15.4483
15.2978
15.1614
15.0297
14.8921
14.7403
14.5804
14.4253
14.2648
14.097
13.9372
13.8027
13.6782
13.5808
13.5123
13.4772
13.4996
)
;
    }
    Airfoil
    {
        type            calculated;
        value           nonuniform List<scalar> 
176
(
22.8656
22.1659
21.941
21.618
21.311
21.0592
20.6483
20.3485
19.9957
19.6273
19.301
18.9412
18.6139
18.3238
17.9894
17.7442
17.5056
17.2546
17.0547
16.8652
16.6838
16.5091
16.3384
16.1744
16.0158
15.8604
15.7106
15.5631
15.4057
15.2734
15.1531
15.0294
14.9289
14.825
14.7324
14.648
14.5849
14.5303
14.47
14.4015
14.339
14.2539
14.1337
14.0019
13.863
13.7254
13.6499
13.623
13.5707
12.6358
13.6995
13.8821
14.0651
14.2837
14.4693
14.5831
14.6283
14.6475
14.6455
14.5958
14.4733
14.3261
14.2008
14.0312
13.7836
13.5919
13.4662
13.3538
13.2094
13.0141
12.7884
12.5017
12.1036
11.5298
10.8652
10.2079
9.63657
9.2003
8.84537
8.55996
8.26765
7.91382
7.53479
7.01955
6.42079
5.6277
4.66672
5.59844
8.76814
9.45012
10.2372
10.8374
11.0395
10.9428
10.6909
10.3981
10.1111
9.84864
9.61521
9.40543
9.22025
9.04929
8.88697
8.72688
8.55458
8.37032
8.14715
7.84666
7.48773
8.10977
10.0787
10.9828
11.1843
11.2545
11.3175
11.3685
11.421
11.4738
11.5215
11.5937
11.6894
11.7991
12.0019
12.1214
12.0749
11.9677
13.0201
7.96178
7.06915
6.50302
6.13762
5.92268
5.81929
5.81776
5.95334
6.2934
6.69174
7.05466
7.35379
7.60746
7.82733
8.02003
8.19056
8.34287
8.47901
8.59672
8.7034
8.81129
8.92953
9.05385
9.16968
9.23384
9.27852
9.26657
9.15271
8.93125
8.75686
8.55477
8.4167
8.31503
8.16673
7.9201
7.584
7.17355
6.76469
6.44024
6.19608
6.02351
5.97037
5.98311
6.06525
6.2
6.40907
6.76139
7.3003
7.59574
)
;
    }
}


// ************************************************************************* //
