/*--------------------------------*- C++ -*----------------------------------*\
| =========                 |                                                 |
| \\      /  F ield         | OpenFOAM: The Open Source CFD Toolbox           |
|  \\    /   O peration     | Version:  2206                                  |
|   \\  /    A nd           | Website:  www.openfoam.com                      |
|    \\/     M anipulation  |                                                 |
\*---------------------------------------------------------------------------*/
FoamFile
{
    version     2.0;
    format      ascii;
    arch        "LSB;label=32;scalar=64";
    class       volScalarField;
    location    "0.02";
    object      alphat;
}
// * * * * * * * * * * * * * * * * * * * * * * * * * * * * * * * * * * * * * //

dimensions      [1 -1 -1 0 0 0 0];

internalField   nonuniform List<scalar> 
1396
(
2.7771135e-08
2.7771053e-08
2.7770967e-08
2.7770874e-08
2.7770772e-08
2.7770659e-08
2.7770533e-08
2.7770394e-08
2.7770236e-08
2.7770036e-08
2.7769826e-08
2.7769585e-08
2.7769311e-08
2.7769012e-08
2.7771426e-08
2.7771382e-08
2.7771332e-08
2.7771277e-08
2.7771209e-08
2.7771144e-08
2.7771072e-08
2.7770994e-08
2.7770908e-08
2.7770811e-08
2.7770709e-08
2.7770594e-08
2.7770467e-08
2.7770311e-08
2.7771639e-08
2.7771606e-08
2.7771575e-08
2.7771541e-08
2.7771504e-08
2.7771466e-08
2.7771426e-08
2.7771382e-08
2.7771336e-08
2.7771285e-08
2.7771219e-08
2.7771158e-08
2.7771092e-08
2.7771022e-08
2.7769685e-08
2.7769433e-08
2.7769175e-08
2.7768905e-08
2.7768632e-08
2.776833e-08
2.7767964e-08
2.7767481e-08
2.7766609e-08
2.7764038e-08
2.7753733e-08
2.7708216e-08
2.7543851e-08
2.6988552e-08
2.7769945e-08
2.7769715e-08
2.7769491e-08
2.776925e-08
2.7768999e-08
2.7768717e-08
2.7768405e-08
2.7768037e-08
2.7767562e-08
2.7766686e-08
2.7763891e-08
2.7752608e-08
2.7704059e-08
2.7494276e-08
2.7770175e-08
2.7769966e-08
2.7769756e-08
2.7769541e-08
2.7769318e-08
2.7769072e-08
2.7768783e-08
2.7768456e-08
2.7768071e-08
2.7767578e-08
2.7766626e-08
2.7763596e-08
2.7750166e-08
2.7688607e-08
2.7770365e-08
2.7770181e-08
2.7769997e-08
2.7769803e-08
2.7769598e-08
2.776937e-08
2.776911e-08
2.7768817e-08
2.7768486e-08
2.7768085e-08
2.7767527e-08
2.7766453e-08
2.7762845e-08
2.7746624e-08
2.7770529e-08
2.7770352e-08
2.7770187e-08
2.7770009e-08
2.776982e-08
2.776962e-08
2.7769379e-08
2.7769104e-08
2.7768789e-08
2.7768446e-08
2.776801e-08
2.776741e-08
2.7766177e-08
2.7761787e-08
2.7770702e-08
2.7770539e-08
2.7770385e-08
2.7770229e-08
2.7770053e-08
2.776986e-08
2.7769645e-08
2.77694e-08
2.776912e-08
2.7768796e-08
2.7768417e-08
2.7767951e-08
2.7767286e-08
2.7765801e-08
2.7770796e-08
2.7770646e-08
2.7770503e-08
2.7770354e-08
2.7770197e-08
2.7770024e-08
2.7769821e-08
2.7769594e-08
2.7769338e-08
2.7769031e-08
2.7768681e-08
2.776826e-08
2.776774e-08
2.7767009e-08
2.7770962e-08
2.7770825e-08
2.7770696e-08
2.7770566e-08
2.7770417e-08
2.7770259e-08
2.7770073e-08
2.7769863e-08
2.7769629e-08
2.776935e-08
2.776903e-08
2.7768653e-08
2.7768207e-08
2.7767657e-08
2.7772247e-08
2.7772248e-08
2.7772248e-08
2.7772248e-08
2.7772249e-08
2.7772239e-08
2.777224e-08
2.777224e-08
2.7772241e-08
2.7772242e-08
2.7772242e-08
2.7772243e-08
2.7772229e-08
2.777223e-08
2.7772231e-08
2.7772232e-08
2.7772232e-08
2.7772233e-08
2.7772234e-08
2.7772234e-08
2.7772235e-08
2.7772218e-08
2.7772218e-08
2.7772219e-08
2.777222e-08
2.777222e-08
2.7772222e-08
2.7772222e-08
2.7772223e-08
2.7772224e-08
2.7772225e-08
2.7772226e-08
2.7772201e-08
2.7772202e-08
2.7772203e-08
2.7772204e-08
2.7772205e-08
2.7772206e-08
2.7772207e-08
2.7772208e-08
2.777221e-08
2.777221e-08
2.7772212e-08
2.7772213e-08
2.7772182e-08
2.7772183e-08
2.7772183e-08
2.7772185e-08
2.7772186e-08
2.7772187e-08
2.7772189e-08
2.777219e-08
2.7772191e-08
2.7772193e-08
2.7772195e-08
2.7772196e-08
2.7772197e-08
2.7772154e-08
2.7772156e-08
2.7772158e-08
2.7772159e-08
2.7772161e-08
2.7772163e-08
2.7772165e-08
2.7772167e-08
2.7772169e-08
2.7772171e-08
2.7772173e-08
2.7772116e-08
2.7772117e-08
2.777212e-08
2.7772123e-08
2.7772124e-08
2.7772128e-08
2.7772131e-08
2.7772133e-08
2.7772137e-08
2.7772139e-08
2.7772062e-08
2.7772064e-08
2.7772068e-08
2.7772072e-08
2.7772076e-08
2.7772079e-08
2.7772085e-08
2.7772085e-08
2.7771978e-08
2.7771982e-08
2.777199e-08
2.7771996e-08
2.7772003e-08
2.7772003e-08
2.7771839e-08
2.7771848e-08
2.777186e-08
2.7771861e-08
2.777159e-08
2.7771577e-08
2.7770887e-08
2.7772247e-08
2.7772247e-08
2.7772247e-08
2.7772247e-08
2.7772247e-08
2.7772247e-08
2.7772247e-08
2.7772247e-08
2.7772247e-08
2.7772247e-08
2.7772239e-08
2.7772239e-08
2.7772239e-08
2.7772239e-08
2.7772239e-08
2.7772239e-08
2.7772239e-08
2.7772239e-08
2.7772229e-08
2.7772229e-08
2.7772229e-08
2.7772229e-08
2.7772229e-08
2.7772229e-08
2.7772217e-08
2.7772217e-08
2.7772217e-08
2.7772217e-08
2.7772201e-08
2.7772201e-08
2.7771138e-08
2.7771662e-08
2.7771897e-08
2.777202e-08
2.7772097e-08
2.7772144e-08
2.7772176e-08
2.7771219e-08
2.7771688e-08
2.7771909e-08
2.7772028e-08
2.7772101e-08
2.7772147e-08
2.7772179e-08
2.7771285e-08
2.7771713e-08
2.7771921e-08
2.7772035e-08
2.7772105e-08
2.7772149e-08
2.7772179e-08
2.7771339e-08
2.7771735e-08
2.7771932e-08
2.7772041e-08
2.7772108e-08
2.7772152e-08
2.7772183e-08
2.7770408e-08
2.7771394e-08
2.7771758e-08
2.7771944e-08
2.7772047e-08
2.7772112e-08
2.7772154e-08
2.7772183e-08
2.7770532e-08
2.7771442e-08
2.777178e-08
2.7771954e-08
2.7772054e-08
2.7772116e-08
2.7772157e-08
2.7770653e-08
2.7771489e-08
2.7771802e-08
2.7771966e-08
2.7772061e-08
2.777212e-08
2.7772159e-08
2.7770776e-08
2.7771531e-08
2.7771822e-08
2.7771976e-08
2.7772067e-08
2.7772124e-08
2.7772162e-08
2.7770879e-08
2.7771571e-08
2.777184e-08
2.7771986e-08
2.7772073e-08
2.7772127e-08
2.7772164e-08
2.7770992e-08
2.7771611e-08
2.777186e-08
2.7771997e-08
2.7772078e-08
2.7772131e-08
2.7771064e-08
2.7771641e-08
2.7771874e-08
2.7772005e-08
2.7772084e-08
2.7772135e-08
2.7771172e-08
2.7771681e-08
2.7771895e-08
2.7772016e-08
2.7772091e-08
2.7772139e-08
2.7771215e-08
2.7771699e-08
2.7771904e-08
2.7772022e-08
2.7772094e-08
2.7772141e-08
2.7771322e-08
2.7771743e-08
2.7771927e-08
2.7772034e-08
2.7772101e-08
2.7772146e-08
2.7771457e-08
2.7771644e-08
2.7771784e-08
2.7771788e-08
2.7771876e-08
2.7771948e-08
2.7771953e-08
2.7772e-08
2.777205e-08
2.7772112e-08
2.7768737e-08
2.7768534e-08
2.7768303e-08
2.7768029e-08
2.776765e-08
2.7766949e-08
2.7765838e-08
2.776406e-08
2.7761363e-08
2.7757512e-08
2.7752796e-08
2.7747463e-08
2.7740522e-08
2.7770182e-08
2.777012e-08
2.7770067e-08
2.7769992e-08
2.7769938e-08
2.7769888e-08
2.7769814e-08
2.7769748e-08
2.7769682e-08
2.7770965e-08
2.7770932e-08
2.777091e-08
2.7770889e-08
8.0665158e-09
7.7390257e-09
7.8975273e-09
7.5089738e-09
7.2772773e-09
7.1631729e-09
8.9925032e-09
1.431816e-08
4.2315621e-08
5.1285443e-08
9.9863767e-09
9.6468432e-10
2.4918373e-09
3.5229986e-08
7.8357606e-09
7.5653307e-09
7.6065924e-09
7.2411138e-09
7.0701102e-09
7.1018056e-09
9.1299937e-09
1.7102557e-08
5.0950691e-08
4.18493e-08
7.0348855e-09
9.053628e-10
2.2955601e-09
3.7711347e-08
7.6840652e-09
7.3894697e-09
7.3835963e-09
7.0065692e-09
6.919552e-09
7.0501706e-09
9.2449896e-09
2.0813987e-08
5.8186438e-08
3.3671542e-08
5.0467148e-09
9.1059969e-10
2.2275817e-09
3.8795752e-08
7.5741742e-09
7.2265398e-09
7.2012791e-09
6.8079797e-09
6.786398e-09
6.9729151e-09
9.2630906e-09
2.4492611e-08
6.2737909e-08
2.808929e-08
3.8790209e-09
9.3260235e-10
2.1886651e-09
3.8588978e-08
7.4549533e-09
7.1198836e-09
7.0445543e-09
6.6531954e-09
6.6702683e-09
6.8541999e-09
9.1537653e-09
2.727996e-08
6.5227308e-08
2.432124e-08
3.1635889e-09
9.3758147e-10
2.1474083e-09
3.7864968e-08
7.3351306e-09
7.049437e-09
6.909148e-09
6.5148861e-09
6.5295008e-09
6.674655e-09
8.8260932e-09
2.8407985e-08
6.6667237e-08
2.2247648e-08
2.7364695e-09
8.8631906e-10
2.0629709e-09
3.7201204e-08
7.2289273e-09
7.0228947e-09
6.8012947e-09
6.3973032e-09
6.3680749e-09
6.4258276e-09
8.1656829e-09
2.7227609e-08
6.8334576e-08
2.2810495e-08
2.6374237e-09
7.6330425e-10
1.9321858e-09
3.6284253e-08
7.1140394e-09
7.0430262e-09
6.7277701e-09
6.3092742e-09
6.1931268e-09
6.0834582e-09
7.2059403e-09
2.2739296e-08
6.7166875e-08
2.631837e-08
2.9524178e-09
6.0852603e-10
1.6216805e-09
3.4321183e-08
7.0655319e-09
7.1093374e-09
6.7088164e-09
6.2927738e-09
6.083783e-09
5.9305672e-09
6.6388045e-09
1.8278513e-08
6.6944957e-08
3.533132e-08
3.8130856e-09
4.8629407e-10
1.6684027e-09
3.2814319e-08
6.8585124e-09
7.1609262e-09
6.6762208e-09
6.2448011e-09
5.8635854e-09
5.4989244e-09
5.5457682e-09
1.0930073e-08
4.4538295e-08
4.5932028e-08
4.9037232e-09
3.54623e-10
1.1144433e-09
2.890098e-08
7.3375679e-09
7.5419029e-09
7.0150642e-09
6.6396027e-09
6.2273706e-09
5.9970035e-09
6.5772176e-09
1.0176137e-08
4.232498e-08
7.0633692e-08
1.0510934e-08
6.6115612e-10
2.6461409e-09
3.0921831e-08
5.755489e-09
7.0113435e-09
6.4299233e-09
6.0330214e-09
5.3624157e-09
4.7913755e-09
4.0315522e-09
4.8974889e-09
2.1516787e-08
7.9517553e-08
9.2870408e-09
8.3259499e-11
6.6750814e-10
1.1280628e-07
2.7346471e-08
2.6814267e-08
2.6116739e-08
2.5004797e-08
2.3468352e-08
2.1564086e-08
1.9494333e-08
1.7377156e-08
1.5415286e-08
1.3794669e-08
1.2523282e-08
1.1542428e-08
1.0694589e-08
9.5935207e-09
2.6424496e-08
2.4925547e-08
2.3297273e-08
2.10606e-08
1.8555977e-08
1.595345e-08
1.3512327e-08
1.1486557e-08
9.9103073e-09
8.7477398e-09
8.0169829e-09
7.7524621e-09
7.7911159e-09
7.8273017e-09
2.4828137e-08
2.2239403e-08
2.0077353e-08
1.7438347e-08
1.4987398e-08
1.2823482e-08
1.1136757e-08
9.8214892e-09
8.8148304e-09
8.1214795e-09
7.6044649e-09
7.1818988e-09
7.0556704e-09
7.2276942e-09
2.2504087e-08
1.8926369e-08
1.6672385e-08
1.4060815e-08
1.2010923e-08
1.041258e-08
9.2114407e-09
8.362838e-09
7.852533e-09
7.4733665e-09
7.1541245e-09
6.9837358e-09
7.1674331e-09
7.018786e-09
1.997336e-08
1.5893768e-08
1.403843e-08
1.1784277e-08
1.0323288e-08
9.1656919e-09
8.3571577e-09
7.7873025e-09
7.3532507e-09
7.0292785e-09
6.9366686e-09
7.1636533e-09
6.9086811e-09
6.4003632e-09
1.377322e-08
1.2688839e-08
1.0802727e-08
9.8196659e-09
8.9830651e-09
8.3265124e-09
7.7251993e-09
7.2346332e-09
7.064584e-09
7.2883608e-09
7.0400968e-09
6.3485393e-09
5.7383239e-09
1.3172787e-08
1.2767428e-08
1.1298187e-08
1.0736871e-08
1.005917e-08
9.3232269e-09
8.5613544e-09
8.0241788e-09
7.8828488e-09
7.5879271e-09
6.6507996e-09
5.6745152e-09
4.9200111e-09
1.442779e-08
1.4909522e-08
1.4165759e-08
1.4353749e-08
1.4046275e-08
1.3282044e-08
1.2188951e-08
1.109987e-08
1.0031937e-08
8.3546216e-09
6.5945852e-09
5.3117854e-09
4.6827508e-09
2.0272027e-08
2.2508955e-08
2.5759353e-08
2.888484e-08
3.0378282e-08
2.9535012e-08
2.5389132e-08
1.8004986e-08
1.162134e-08
8.2380587e-09
6.7702015e-09
7.0850899e-09
2.91908e-08
3.7127917e-08
4.9844703e-08
6.6664197e-08
8.4407114e-08
9.764516e-08
1.023788e-07
1.0315404e-07
9.015926e-08
6.0881662e-08
4.3523094e-08
5.0851934e-08
3.4876887e-08
4.4229469e-08
5.5739799e-08
6.4998209e-08
7.0380882e-08
7.5731202e-08
8.9594581e-08
1.171868e-07
1.7911997e-07
3.0799005e-07
2.6616808e-07
8.9544415e-08
3.5097697e-08
3.5715312e-08
3.2479572e-08
2.7595033e-08
2.2158407e-08
1.7360239e-08
1.5588788e-08
2.0465054e-08
4.5744245e-08
8.1092483e-08
3.5790736e-08
2.7206809e-08
2.4166861e-08
1.8657803e-08
1.2633324e-08
7.9485228e-09
5.1584546e-09
4.0448877e-09
3.5431984e-09
2.9266645e-09
4.1683331e-09
1.1333579e-08
2.5580248e-08
2.1479062e-08
1.5445058e-08
9.9772811e-09
6.6357362e-09
4.989759e-09
4.6843195e-09
6.4680829e-09
9.6460095e-09
9.7464971e-09
2.2819755e-08
1.3459564e-06
4.9285796e-08
6.5459572e-09
5.3536534e-09
5.762656e-09
6.8213506e-09
8.3461969e-09
9.7796631e-09
1.2831864e-08
1.8012583e-08
7.9278678e-06
4.2473086e-08
3.4434027e-09
5.2664443e-09
5.8479857e-09
6.7522201e-09
8.6053462e-09
1.0203665e-08
1.2640456e-08
1.7044648e-08
1.104295e-05
1.4891482e-07
8.1159551e-09
5.4242456e-09
6.1487604e-09
7.2351812e-09
8.9767895e-09
1.0410432e-08
1.2474029e-08
1.6503284e-08
6.4677983e-07
7.6569859e-10
4.7426008e-09
5.9055435e-09
6.3603174e-09
7.4025628e-09
9.3763206e-09
1.0960299e-08
1.2566337e-08
1.6000567e-08
2.0781882e-08
4.4334612e-07
9.0301089e-08
7.1080985e-09
5.3981144e-09
6.46981e-09
7.8640335e-09
9.7282275e-09
1.1372281e-08
1.2839339e-08
1.5734335e-08
2.0508425e-08
1.5390192e-06
2.1561067e-07
4.9594594e-09
5.3896301e-09
6.5957314e-09
8.1956505e-09
1.0284467e-08
1.1968761e-08
1.3171239e-08
1.5637914e-08
2.0000065e-08
1.4160896e-05
1.5676873e-08
4.6783077e-09
5.5838244e-09
6.8602147e-09
8.572874e-09
1.0655359e-08
1.2425156e-08
1.3653834e-08
1.5779231e-08
1.9856675e-08
5.2284224e-07
6.5714269e-11
4.0251571e-09
5.2971955e-09
6.9425275e-09
8.8299129e-09
1.119912e-08
1.3001826e-08
1.4233959e-08
1.6124345e-08
1.990591e-08
1.4704091e-08
6.4623768e-09
6.0836419e-09
5.6526966e-09
7.2054933e-09
9.214189e-09
1.1647733e-08
1.346952e-08
1.4698593e-08
1.6509683e-08
2.0060957e-08
2.84353e-09
1.2817641e-08
4.1056475e-09
5.3002119e-09
7.2631883e-09
9.5862103e-09
1.2249265e-08
1.4118135e-08
1.5257849e-08
1.6955738e-08
2.0295561e-08
4.1811321e-06
3.130958e-08
5.1715525e-09
5.5400266e-09
7.5317857e-09
1.0073273e-08
1.2875822e-08
1.4640457e-08
1.5755907e-08
1.7426843e-08
2.059897e-08
2.772113e-06
6.1186441e-09
4.6863785e-09
5.654571e-09
7.7577821e-09
1.0576765e-08
1.3578386e-08
1.5333857e-08
1.6377848e-08
1.7980738e-08
2.1022624e-08
4.202613e-08
9.994731e-09
5.4406018e-09
5.7725261e-09
8.0845378e-09
1.1017075e-08
1.422314e-08
1.5889992e-08
1.6972699e-08
1.8557806e-08
2.1565627e-08
6.2920323e-07
3.6910712e-08
5.6195782e-09
6.0431857e-09
8.4301979e-09
1.1674297e-08
1.5033402e-08
1.656759e-08
1.7631474e-08
1.9212543e-08
2.2174368e-08
3.5385152e-08
2.4656966e-08
3.501447e-08
2.7814473e-08
2.7861183e-08
2.7771116e-08
2.7771245e-08
2.7771491e-08
2.7771665e-08
2.7771789e-08
2.777188e-08
2.7771948e-08
2.7772001e-08
2.7772043e-08
3.0307104e-08
2.4001935e-08
3.4597875e-08
2.7759955e-08
2.7865616e-08
2.7771221e-08
2.7771313e-08
2.7771492e-08
2.7771665e-08
2.7771788e-08
2.7771879e-08
2.7771947e-08
2.7771999e-08
2.7772041e-08
2.9060262e-08
2.3342324e-08
3.3600028e-08
2.7678997e-08
2.7866838e-08
2.7771001e-08
2.7771427e-08
2.7771498e-08
2.7771667e-08
2.7771787e-08
2.7771877e-08
2.7771945e-08
2.7771998e-08
2.7772039e-08
3.5807124e-08
2.3279264e-08
3.2453736e-08
2.7610688e-08
2.7858086e-08
2.7770433e-08
2.7771521e-08
2.7771501e-08
2.7771669e-08
2.7771792e-08
2.7771881e-08
2.7771948e-08
2.7772e-08
2.777204e-08
4.2969109e-08
2.3495352e-08
3.1413381e-08
2.7566063e-08
2.7843142e-08
2.7769816e-08
2.7771568e-08
2.7771514e-08
2.7771678e-08
2.7771791e-08
2.7771879e-08
2.7771946e-08
2.7771998e-08
2.7772039e-08
4.552091e-08
2.372713e-08
3.0500015e-08
2.754962e-08
2.7828238e-08
2.7769308e-08
2.7771557e-08
2.7771516e-08
2.7771681e-08
2.7771802e-08
2.7771887e-08
2.7771952e-08
2.7772003e-08
2.7772043e-08
4.4088631e-08
2.4094417e-08
2.986741e-08
2.7552785e-08
2.7815584e-08
2.7769115e-08
2.7771547e-08
2.7771536e-08
2.7771696e-08
2.7771803e-08
2.7771888e-08
2.7771952e-08
2.7772002e-08
2.7772041e-08
4.1250123e-08
2.4658123e-08
2.9412559e-08
2.757247e-08
2.7805036e-08
2.776914e-08
2.777152e-08
2.7771545e-08
2.7771701e-08
3.8291035e-08
2.5238457e-08
2.9058862e-08
2.7598901e-08
2.779668e-08
3.6344263e-08
2.5616843e-08
8.3247397e-09
7.9905002e-09
7.7767487e-09
7.6100949e-09
7.4775152e-09
7.3819086e-09
7.3032386e-09
7.2463137e-09
7.2233658e-09
7.253806e-09
7.6732921e-09
7.0535723e-09
8.9825019e-09
8.3497889e-09
7.9534625e-09
7.6839944e-09
7.507953e-09
7.4122529e-09
7.3702247e-09
7.3767738e-09
7.4276366e-09
7.5654665e-09
7.9417844e-09
7.71335e-09
1.0429641e-08
9.369565e-09
8.63386e-09
8.151804e-09
7.8561072e-09
7.6940084e-09
7.6261551e-09
7.6464138e-09
7.7718152e-09
8.0351669e-09
8.5252342e-09
8.5891313e-09
1.4743977e-08
1.27302e-08
1.128915e-08
1.0204775e-08
9.4321059e-09
8.9040783e-09
8.5755678e-09
8.4222607e-09
8.4400058e-09
8.6332274e-09
8.9884941e-09
9.5542366e-09
9.7568701e-09
1.808777e-08
1.580037e-08
1.4031554e-08
1.2601604e-08
1.1513095e-08
1.0716247e-08
1.0175893e-08
9.8793287e-09
9.820088e-09
9.9962547e-09
1.0358464e-08
1.0975516e-08
1.1194892e-08
2.2434865e-08
2.1435132e-08
1.9265389e-08
1.7367028e-08
1.5695373e-08
1.4323603e-08
1.3242669e-08
1.2455471e-08
1.1968227e-08
1.1778734e-08
1.1880934e-08
1.2190073e-08
1.2820848e-08
1.296781e-08
2.5029914e-08
2.4215841e-08
2.2511702e-08
2.080454e-08
1.9137499e-08
1.763649e-08
1.6357933e-08
1.5354635e-08
1.4672536e-08
1.4326618e-08
1.4310972e-08
1.451976e-08
1.5095303e-08
1.512651e-08
2.6590121e-08
2.6082896e-08
2.4997158e-08
2.3744538e-08
2.2367305e-08
2.0988525e-08
1.9701823e-08
1.8605947e-08
1.7793493e-08
1.7308997e-08
1.7156609e-08
1.72375e-08
1.7673963e-08
1.7588262e-08
2.7354891e-08
2.7109773e-08
2.6537491e-08
2.5788604e-08
2.4866913e-08
2.382879e-08
2.2753208e-08
2.1749903e-08
2.0935631e-08
2.0384491e-08
2.0119306e-08
2.0071113e-08
2.0320881e-08
2.0120489e-08
2.7648926e-08
2.7557948e-08
2.7323543e-08
2.6957556e-08
2.6442438e-08
2.5802031e-08
2.5069652e-08
2.4312791e-08
2.363519e-08
2.3121064e-08
2.2808648e-08
2.2667296e-08
2.2736004e-08
2.2461565e-08
2.7736153e-08
2.7707974e-08
2.7634409e-08
2.7497638e-08
2.7269124e-08
2.6937783e-08
2.65163e-08
2.6045549e-08
2.5582443e-08
2.5187028e-08
2.4902128e-08
2.4725565e-08
2.466862e-08
2.4373701e-08
2.7759039e-08
2.7750785e-08
2.7730308e-08
2.7689701e-08
2.7612432e-08
2.7478842e-08
2.727965e-08
2.7027264e-08
2.6757686e-08
2.650743e-08
2.6298387e-08
2.6140929e-08
2.6034263e-08
2.5775737e-08
2.7764995e-08
2.7762532e-08
2.775686e-08
2.7745448e-08
2.772295e-08
2.7680716e-08
2.760723e-08
2.7496513e-08
2.7358831e-08
2.72151e-08
2.7082262e-08
2.6963583e-08
2.685352e-08
2.6646641e-08
2.7766845e-08
2.7766082e-08
2.7764581e-08
2.7761693e-08
2.7756048e-08
2.774527e-08
2.7725618e-08
2.7692822e-08
2.7644471e-08
2.7585093e-08
2.7523163e-08
2.7461246e-08
2.7391991e-08
2.7275968e-08
2.777225e-08
2.7772285e-08
2.7772291e-08
2.7772293e-08
2.777225e-08
2.7772285e-08
2.7772291e-08
2.777225e-08
2.7772285e-08
2.7772251e-08
2.777225e-08
2.7772276e-08
2.7772276e-08
2.7772276e-08
2.7772276e-08
2.7772276e-08
2.7772276e-08
2.7772276e-08
2.7772276e-08
2.7772277e-08
2.7772276e-08
2.7772277e-08
2.7772277e-08
2.7772276e-08
2.7772289e-08
2.7772295e-08
2.7772295e-08
2.7772295e-08
2.7772295e-08
2.7772295e-08
2.7772295e-08
2.7772295e-08
2.7772295e-08
2.7772295e-08
2.7772295e-08
2.7772295e-08
2.7772295e-08
2.7772295e-08
2.7772295e-08
2.7772294e-08
2.7772295e-08
2.7772294e-08
2.7772293e-08
2.7772294e-08
2.7772293e-08
2.7772292e-08
2.7772293e-08
2.7772292e-08
2.7772292e-08
2.7772289e-08
2.7772292e-08
2.7772289e-08
2.7772289e-08
2.7772289e-08
2.7772289e-08
2.7772277e-08
1.7654133e-07
3.3058138e-08
3.434212e-08
2.787983e-08
2.7796204e-08
2.7770569e-08
2.7771248e-08
2.77715e-08
2.7771676e-08
2.7771799e-08
2.777189e-08
2.7771957e-08
2.777201e-08
2.7772052e-08
1.1979231e-07
3.1445661e-08
3.2020394e-08
2.783384e-08
2.7782987e-08
2.7770972e-08
2.7771402e-08
2.777161e-08
2.7771755e-08
2.777186e-08
2.7771938e-08
2.7771998e-08
2.7772044e-08
2.777208e-08
1.0310457e-07
3.0198856e-08
3.0747977e-08
2.7814358e-08
2.777692e-08
2.7771235e-08
2.7771545e-08
2.777173e-08
2.7771847e-08
2.7771931e-08
2.7771995e-08
2.7772044e-08
2.7772082e-08
2.7772111e-08
9.0150534e-08
2.9512731e-08
2.9908269e-08
2.7803098e-08
2.7774308e-08
2.7771398e-08
2.7771647e-08
2.7771806e-08
2.777191e-08
2.7771983e-08
2.7772038e-08
2.777208e-08
2.7772113e-08
2.7772138e-08
2.7772295e-08
2.7772295e-08
2.7772295e-08
2.7772295e-08
2.7772295e-08
2.7772295e-08
2.7772295e-08
2.7772295e-08
2.7772295e-08
2.7772295e-08
2.7772295e-08
2.7772295e-08
2.7772295e-08
2.7772295e-08
2.7772295e-08
2.7772295e-08
2.7772295e-08
2.7772295e-08
2.7772295e-08
2.7772295e-08
2.7772295e-08
2.7772295e-08
2.7772295e-08
2.7772294e-08
2.7772294e-08
2.7772293e-08
2.7772295e-08
2.7772295e-08
2.7772295e-08
2.7772295e-08
2.7772295e-08
2.7772295e-08
2.7772295e-08
2.7772295e-08
2.7772294e-08
2.7772294e-08
2.7772293e-08
2.7772291e-08
2.7772285e-08
2.7772255e-08
2.7772295e-08
2.7772295e-08
2.7772295e-08
2.7772295e-08
2.7772295e-08
2.7772295e-08
2.7772295e-08
2.7772295e-08
2.7772294e-08
2.7772294e-08
2.7772293e-08
2.7772291e-08
2.7772285e-08
2.7772253e-08
2.7772295e-08
2.7772295e-08
2.7772295e-08
2.7772295e-08
2.7772295e-08
2.7772294e-08
2.7772294e-08
2.7772293e-08
2.7772291e-08
2.7772285e-08
2.7772251e-08
2.7772295e-08
2.7772294e-08
2.7772294e-08
2.7772293e-08
2.7772291e-08
2.7772285e-08
2.7772248e-08
)
;

boundaryField
{
    Side
    {
        type            empty;
    }
    Inlet
    {
        type            calculated;
        value           nonuniform List<scalar> 7(2.7772295e-08 3.9592188e-07 3.9592188e-07 3.9592188e-07 3.9592188e-07 3.9592188e-07 3.9592188e-07);
    }
    Airfoil
    {
        type            compressible::alphatWallFunction;
        value           nonuniform List<scalar> 0();
    }
    Outlet
    {
        type            zeroGradient;
    }
    Flap
    {
        type            compressible::alphatWallFunction;
        value           nonuniform List<scalar> 
30
(
9.5898855e-07
9.2685844e-07
9.0073711e-07
8.8019499e-07
8.6364951e-07
8.5021073e-07
8.4079987e-07
8.3564122e-07
8.3723953e-07
7.9932441e-07
8.2935377e-07
2.8345179e-07
3.191719e-06
2.6574561e-06
2.3891118e-06
3.7825323e-06
5.8374463e-06
6.0610181e-06
5.3766496e-06
7.7137897e-06
1.0670317e-05
9.7540962e-06
7.206118e-06
3.619114e-06
2.7935938e-06
2.8504062e-06
1.2367334e-05
1.1677281e-05
1.2322589e-05
1.2901607e-05
)
;
    }
    procBoundary4to3
    {
        type            processor;
        value           nonuniform List<scalar> 
142
(
2.7769034e-08
2.7769369e-08
2.7769369e-08
2.7769089e-08
2.7768808e-08
2.7768511e-08
2.7768206e-08
2.7767831e-08
2.7767328e-08
2.7766379e-08
2.7763607e-08
2.7752822e-08
2.7710835e-08
2.7536023e-08
2.7066828e-08
2.5895439e-08
2.5895439e-08
2.7772179e-08
2.7772179e-08
2.7772152e-08
2.7772153e-08
2.7772153e-08
2.7772113e-08
2.7772113e-08
2.7772056e-08
2.7772058e-08
2.7772058e-08
2.7771968e-08
2.7771971e-08
2.7771971e-08
2.7771822e-08
2.7771828e-08
2.7771828e-08
2.777154e-08
2.7771559e-08
2.7771559e-08
2.7770925e-08
2.7770925e-08
2.7768448e-08
2.7772239e-08
2.7772246e-08
2.7772239e-08
2.7772246e-08
2.7772246e-08
2.7772245e-08
2.7772245e-08
2.7772229e-08
2.7772239e-08
2.7772229e-08
2.7772216e-08
2.7772229e-08
2.7772217e-08
2.77722e-08
2.7772216e-08
2.7772201e-08
2.777218e-08
2.77722e-08
2.7772179e-08
2.7769683e-08
2.7769909e-08
2.7770112e-08
2.7770263e-08
2.7770263e-08
8.2809456e-09
7.8201494e-09
8.1136158e-09
7.7318557e-09
7.4614335e-09
7.1952448e-09
8.8496204e-09
1.2900514e-08
3.6672707e-08
5.8526774e-08
1.2747679e-08
1.0919108e-09
2.8176865e-09
3.3127163e-08
8.7775261e-09
9.9469901e-09
1.1806196e-08
1.1806196e-08
1.5294769e-08
1.8869592e-08
1.8869592e-08
2.7772244e-08
2.7772295e-08
2.7772295e-08
2.7772295e-08
2.7772295e-08
2.7772295e-08
2.7772295e-08
2.7772295e-08
2.7772295e-08
2.7772295e-08
2.7772295e-08
2.7772295e-08
2.7772295e-08
2.7772294e-08
2.7772293e-08
2.7772293e-08
2.7772292e-08
2.7772292e-08
2.7772289e-08
2.7772289e-08
2.7772289e-08
2.7772276e-08
2.7772276e-08
2.7772276e-08
2.7772276e-08
2.7772276e-08
8.0207986e-08
2.9092146e-08
2.9357286e-08
2.7795488e-08
2.7773137e-08
2.7771509e-08
2.7771724e-08
2.7771863e-08
2.7771959e-08
2.7772022e-08
2.777207e-08
2.7772107e-08
2.7772135e-08
2.7772159e-08
2.7772295e-08
2.7772295e-08
2.7772295e-08
2.7772295e-08
2.7772295e-08
2.7772295e-08
2.7772295e-08
2.7772295e-08
2.7772295e-08
2.7772295e-08
2.7772294e-08
2.7772294e-08
2.7772294e-08
2.7772293e-08
2.7772291e-08
2.7772291e-08
2.7772286e-08
2.7772258e-08
)
;
    }
    procBoundary4to5
    {
        type            processor;
        value           nonuniform List<scalar> 
189
(
2.777179e-08
2.7771771e-08
2.7771752e-08
2.7771731e-08
2.777171e-08
2.7771687e-08
2.7771664e-08
2.7771638e-08
2.7771605e-08
2.7771576e-08
2.7771544e-08
2.777151e-08
2.7771475e-08
2.777144e-08
2.7772277e-08
2.7772277e-08
2.7772277e-08
2.7772277e-08
2.777225e-08
2.7772277e-08
2.777225e-08
2.777225e-08
2.7772243e-08
2.7772243e-08
2.7772244e-08
2.7772236e-08
2.7772236e-08
2.7772237e-08
2.7772227e-08
2.7772227e-08
2.7772214e-08
2.7772214e-08
2.7772216e-08
2.77722e-08
2.7772277e-08
2.77722e-08
2.7772201e-08
2.7772202e-08
2.7772204e-08
2.7772205e-08
2.7772185e-08
2.7772185e-08
2.7772187e-08
2.7772189e-08
2.7772191e-08
2.7772167e-08
2.7772167e-08
2.7772169e-08
2.7772172e-08
2.7772174e-08
2.7772177e-08
2.7772153e-08
2.7771887e-08
2.7772007e-08
2.7772045e-08
2.7772045e-08
2.7772079e-08
2.7772079e-08
2.777213e-08
2.7772153e-08
2.7769554e-08
2.7769415e-08
2.7769292e-08
2.7731361e-08
2.7769122e-08
2.7731361e-08
2.7770869e-08
2.7770864e-08
2.7770833e-08
2.7770823e-08
2.7769554e-08
2.7770839e-08
2.7771405e-08
2.7771395e-08
2.7771379e-08
2.7770869e-08
2.7771372e-08
2.7737219e-08
2.7661455e-08
2.749653e-08
2.718963e-08
1.7967163e-08
2.6739527e-08
1.7967163e-08
1.6976841e-08
1.7430791e-08
1.8162516e-08
1.8162516e-08
2.3814819e-08
2.8182818e-08
3.1859723e-08
3.1859723e-08
2.782131e-08
2.7188225e-08
2.3395031e-08
2.3395031e-08
2.2442003e-08
2.173085e-08
2.173085e-08
2.5301372e-08
2.501088e-08
2.4731091e-08
2.4538296e-08
2.4492717e-08
2.4514533e-08
2.4616313e-08
2.478484e-08
2.503304e-08
2.5403532e-08
2.5881296e-08
3.4593077e-08
2.777225e-08
2.7771811e-08
2.7771893e-08
2.7771956e-08
2.7772005e-08
2.7772044e-08
2.7772251e-08
2.7769431e-08
2.7771498e-08
2.7771563e-08
2.7771811e-08
2.7771713e-08
2.8714727e-08
2.7635799e-08
2.7769431e-08
2.7789045e-08
3.4593077e-08
2.8714727e-08
2.6019564e-08
2.7772294e-08
2.7772293e-08
2.7772294e-08
2.7772294e-08
2.7772295e-08
2.7772293e-08
2.7772291e-08
2.7772291e-08
2.7772285e-08
2.7772285e-08
2.7772285e-08
2.777225e-08
2.7772289e-08
2.7772289e-08
2.7772289e-08
2.7772289e-08
2.7772289e-08
2.7772289e-08
2.7772289e-08
2.7772289e-08
2.7772289e-08
2.7772289e-08
2.7772289e-08
2.7772277e-08
2.7772289e-08
2.7772289e-08
2.7772292e-08
2.7772295e-08
2.7772295e-08
2.7772295e-08
2.7772295e-08
2.7772295e-08
2.7772295e-08
2.7772295e-08
2.7772295e-08
2.7772295e-08
2.7772295e-08
2.7772295e-08
2.7772295e-08
2.7772295e-08
2.7772295e-08
2.7772294e-08
2.7772294e-08
2.7772293e-08
2.7772293e-08
2.7772293e-08
2.7772292e-08
2.7772292e-08
2.7772292e-08
2.7772292e-08
2.7772295e-08
2.7772295e-08
2.7772295e-08
2.7772295e-08
2.7772295e-08
2.7772295e-08
2.7772295e-08
2.7772295e-08
2.7772295e-08
)
;
    }
}


// ************************************************************************* //
