/*--------------------------------*- C++ -*----------------------------------*\
| =========                 |                                                 |
| \\      /  F ield         | OpenFOAM: The Open Source CFD Toolbox           |
|  \\    /   O peration     | Version:  2206                                  |
|   \\  /    A nd           | Website:  www.openfoam.com                      |
|    \\/     M anipulation  |                                                 |
\*---------------------------------------------------------------------------*/
FoamFile
{
    version     2.0;
    format      ascii;
    arch        "LSB;label=32;scalar=64";
    class       volScalarField;
    location    "0.02";
    object      nut;
}
// * * * * * * * * * * * * * * * * * * * * * * * * * * * * * * * * * * * * * //

dimensions      [0 2 -1 0 0 0 0];

internalField   nonuniform List<scalar> 
1396
(
2.7771162e-08
2.7771079e-08
2.7770994e-08
2.7770901e-08
2.7770798e-08
2.7770686e-08
2.777056e-08
2.7770421e-08
2.7770263e-08
2.7770063e-08
2.7769853e-08
2.7769611e-08
2.7769337e-08
2.7769039e-08
2.7771453e-08
2.7771408e-08
2.7771358e-08
2.7771304e-08
2.7771236e-08
2.7771171e-08
2.7771099e-08
2.777102e-08
2.7770934e-08
2.7770838e-08
2.7770736e-08
2.7770621e-08
2.7770493e-08
2.7770338e-08
2.7771666e-08
2.7771632e-08
2.7771602e-08
2.7771568e-08
2.7771531e-08
2.7771493e-08
2.7771452e-08
2.7771409e-08
2.7771363e-08
2.7771311e-08
2.7771245e-08
2.7771185e-08
2.7771118e-08
2.7771049e-08
2.7769712e-08
2.7769459e-08
2.7769201e-08
2.7768932e-08
2.7768658e-08
2.7768357e-08
2.7767991e-08
2.7767507e-08
2.7766637e-08
2.7764073e-08
2.7753814e-08
2.7708487e-08
2.7544909e-08
2.6992611e-08
2.7769972e-08
2.7769741e-08
2.7769517e-08
2.7769276e-08
2.7769026e-08
2.7768744e-08
2.7768431e-08
2.7768063e-08
2.7767588e-08
2.7766715e-08
2.776393e-08
2.7752683e-08
2.7704337e-08
2.7495695e-08
2.7770201e-08
2.7769993e-08
2.7769782e-08
2.7769568e-08
2.7769344e-08
2.7769098e-08
2.7768809e-08
2.7768483e-08
2.7768097e-08
2.7767605e-08
2.7766654e-08
2.7763632e-08
2.7750254e-08
2.7688934e-08
2.7770391e-08
2.7770207e-08
2.7770024e-08
2.7769829e-08
2.7769624e-08
2.7769396e-08
2.7769137e-08
2.7768844e-08
2.7768513e-08
2.7768111e-08
2.7767554e-08
2.7766482e-08
2.7762883e-08
2.7746713e-08
2.7770555e-08
2.7770379e-08
2.7770213e-08
2.7770035e-08
2.7769846e-08
2.7769647e-08
2.7769406e-08
2.776913e-08
2.7768816e-08
2.7768472e-08
2.7768037e-08
2.7767437e-08
2.7766206e-08
2.7761827e-08
2.7770728e-08
2.7770566e-08
2.7770412e-08
2.7770256e-08
2.777008e-08
2.7769886e-08
2.7769672e-08
2.7769427e-08
2.7769146e-08
2.7768823e-08
2.7768443e-08
2.7767978e-08
2.7767313e-08
2.776583e-08
2.7770823e-08
2.7770672e-08
2.777053e-08
2.777038e-08
2.7770224e-08
2.7770051e-08
2.7769847e-08
2.776962e-08
2.7769365e-08
2.7769058e-08
2.7768707e-08
2.7768286e-08
2.7767767e-08
2.7767036e-08
2.7770988e-08
2.7770852e-08
2.7770723e-08
2.7770592e-08
2.7770444e-08
2.7770286e-08
2.77701e-08
2.776989e-08
2.7769655e-08
2.7769376e-08
2.7769057e-08
2.776868e-08
2.7768233e-08
2.7767684e-08
2.7772274e-08
2.7772274e-08
2.7772275e-08
2.7772275e-08
2.7772276e-08
2.7772266e-08
2.7772267e-08
2.7772267e-08
2.7772268e-08
2.7772268e-08
2.7772269e-08
2.7772269e-08
2.7772256e-08
2.7772257e-08
2.7772257e-08
2.7772258e-08
2.7772259e-08
2.7772259e-08
2.777226e-08
2.7772261e-08
2.7772262e-08
2.7772244e-08
2.7772245e-08
2.7772245e-08
2.7772246e-08
2.7772247e-08
2.7772248e-08
2.7772249e-08
2.7772249e-08
2.7772251e-08
2.7772252e-08
2.7772253e-08
2.7772228e-08
2.7772228e-08
2.777223e-08
2.7772231e-08
2.7772231e-08
2.7772233e-08
2.7772234e-08
2.7772235e-08
2.7772236e-08
2.7772237e-08
2.7772239e-08
2.777224e-08
2.7772208e-08
2.7772209e-08
2.777221e-08
2.7772211e-08
2.7772213e-08
2.7772213e-08
2.7772215e-08
2.7772217e-08
2.7772218e-08
2.777222e-08
2.7772222e-08
2.7772223e-08
2.7772224e-08
2.7772181e-08
2.7772183e-08
2.7772184e-08
2.7772185e-08
2.7772188e-08
2.777219e-08
2.7772191e-08
2.7772194e-08
2.7772196e-08
2.7772198e-08
2.77722e-08
2.7772143e-08
2.7772144e-08
2.7772147e-08
2.7772149e-08
2.7772151e-08
2.7772155e-08
2.7772158e-08
2.7772159e-08
2.7772164e-08
2.7772165e-08
2.7772088e-08
2.777209e-08
2.7772095e-08
2.7772099e-08
2.7772102e-08
2.7772105e-08
2.7772112e-08
2.7772112e-08
2.7772005e-08
2.7772009e-08
2.7772016e-08
2.7772022e-08
2.7772029e-08
2.777203e-08
2.7771866e-08
2.7771875e-08
2.7771886e-08
2.7771887e-08
2.7771617e-08
2.7771604e-08
2.7770913e-08
2.7772274e-08
2.7772273e-08
2.7772274e-08
2.7772273e-08
2.7772274e-08
2.7772273e-08
2.7772274e-08
2.7772274e-08
2.7772274e-08
2.7772274e-08
2.7772266e-08
2.7772265e-08
2.7772266e-08
2.7772265e-08
2.7772266e-08
2.7772265e-08
2.7772266e-08
2.7772266e-08
2.7772256e-08
2.7772256e-08
2.7772256e-08
2.7772256e-08
2.7772256e-08
2.7772256e-08
2.7772243e-08
2.7772244e-08
2.7772243e-08
2.7772244e-08
2.7772227e-08
2.7772228e-08
2.7771164e-08
2.7771689e-08
2.7771924e-08
2.7772046e-08
2.7772123e-08
2.777217e-08
2.7772203e-08
2.7771246e-08
2.7771715e-08
2.7771935e-08
2.7772055e-08
2.7772127e-08
2.7772173e-08
2.7772206e-08
2.7771311e-08
2.777174e-08
2.7771948e-08
2.7772061e-08
2.7772131e-08
2.7772175e-08
2.7772206e-08
2.7771366e-08
2.7771762e-08
2.7771959e-08
2.7772068e-08
2.7772134e-08
2.7772178e-08
2.7772209e-08
2.7770434e-08
2.777142e-08
2.7771785e-08
2.777197e-08
2.7772074e-08
2.7772139e-08
2.7772181e-08
2.777221e-08
2.7770559e-08
2.7771468e-08
2.7771806e-08
2.7771981e-08
2.7772081e-08
2.7772143e-08
2.7772184e-08
2.777068e-08
2.7771516e-08
2.7771828e-08
2.7771992e-08
2.7772087e-08
2.7772146e-08
2.7772185e-08
2.7770803e-08
2.7771558e-08
2.7771848e-08
2.7772003e-08
2.7772093e-08
2.777215e-08
2.7772189e-08
2.7770905e-08
2.7771598e-08
2.7771867e-08
2.7772013e-08
2.7772099e-08
2.7772154e-08
2.7772191e-08
2.7771019e-08
2.7771638e-08
2.7771886e-08
2.7772024e-08
2.7772105e-08
2.7772158e-08
2.7771091e-08
2.7771668e-08
2.7771901e-08
2.7772031e-08
2.7772111e-08
2.7772162e-08
2.7771199e-08
2.7771708e-08
2.7771921e-08
2.7772043e-08
2.7772117e-08
2.7772165e-08
2.7771242e-08
2.7771726e-08
2.777193e-08
2.7772049e-08
2.7772121e-08
2.7772168e-08
2.7771349e-08
2.7771769e-08
2.7771953e-08
2.7772061e-08
2.7772128e-08
2.7772172e-08
2.7771484e-08
2.777167e-08
2.7771811e-08
2.7771814e-08
2.7771903e-08
2.7771975e-08
2.777198e-08
2.7772027e-08
2.7772077e-08
2.7772138e-08
2.7768764e-08
2.7768561e-08
2.776833e-08
2.7768056e-08
2.7767678e-08
2.7766979e-08
2.776587e-08
2.7764097e-08
2.7761408e-08
2.7757572e-08
2.7752879e-08
2.7747573e-08
2.7740665e-08
2.7770209e-08
2.7770147e-08
2.7770094e-08
2.7770019e-08
2.7769965e-08
2.7769915e-08
2.7769841e-08
2.7769775e-08
2.7769709e-08
2.7770991e-08
2.7770959e-08
2.7770937e-08
2.7770916e-08
8.2127535e-09
8.1273517e-09
8.6240716e-09
8.5778402e-09
8.7194486e-09
9.0180222e-09
1.1852976e-08
1.9664996e-08
6.0008833e-08
7.529646e-08
1.4291297e-08
1.316487e-09
3.4268794e-09
5.2643784e-08
8.0471443e-09
8.0410185e-09
8.4263121e-09
8.400278e-09
8.6079497e-09
9.0791548e-09
1.2209638e-08
2.3828012e-08
7.3258958e-08
6.1914992e-08
1.0087853e-08
1.2417625e-09
3.1826732e-09
5.7146905e-08
7.954246e-09
7.9365584e-09
8.2784226e-09
8.2329197e-09
8.5387695e-09
9.1284076e-09
1.2513018e-08
2.938291e-08
8.4733968e-08
5.0162876e-08
7.2609125e-09
1.2571429e-09
3.1121393e-09
5.9494669e-08
7.8884816e-09
7.8222927e-09
8.1465186e-09
8.076355e-09
8.4579785e-09
9.1173184e-09
1.2654355e-08
3.4967163e-08
9.233279e-08
4.2113118e-08
5.6039451e-09
1.2965259e-09
3.0800721e-09
5.9830865e-08
7.7953482e-09
7.7478554e-09
8.0175511e-09
7.9466022e-09
8.373617e-09
9.030183e-09
1.2600156e-08
3.9330528e-08
9.6921704e-08
3.6732105e-08
4.5974544e-09
1.3135462e-09
3.0479782e-09
5.9424214e-08
7.6854002e-09
7.6912116e-09
7.8916842e-09
7.8161163e-09
8.2396691e-09
8.8483168e-09
1.2234824e-08
4.1347933e-08
1.0008719e-07
3.3945224e-08
4.0143519e-09
1.2528069e-09
2.9579813e-09
5.9181746e-08
7.5670337e-09
7.657193e-09
7.76962e-09
7.6836149e-09
8.0539735e-09
8.5505442e-09
1.1380754e-08
3.9960062e-08
1.0364676e-07
3.5259184e-08
3.9204306e-09
1.0887757e-09
2.7978812e-09
5.846668e-08
7.415848e-09
7.6453219e-09
7.6571902e-09
7.5568791e-09
7.8224395e-09
8.1005223e-09
1.0074381e-08
3.3574819e-08
1.0283527e-07
4.1271293e-08
4.4694384e-09
8.7644964e-10
2.3718248e-09
5.5966103e-08
7.3010792e-09
7.6406274e-09
7.5597764e-09
7.4666882e-09
7.624993e-09
7.8511075e-09
9.2606452e-09
2.6920229e-08
1.0285966e-07
5.6027758e-08
5.8617722e-09
7.0501661e-10
2.4563036e-09
5.3962138e-08
7.0311415e-09
7.6265064e-09
7.4628163e-09
7.3618939e-09
7.3202174e-09
7.2756879e-09
7.768483e-09
1.6239241e-08
6.9796837e-08
7.4611073e-08
7.8456115e-09
5.2972396e-10
1.6913599e-09
4.8671914e-08
7.4051463e-09
7.8578154e-09
7.6432297e-09
7.6164688e-09
7.5608198e-09
7.7265213e-09
8.987161e-09
1.4686794e-08
6.450371e-08
1.1268308e-07
1.6499261e-08
9.550617e-10
3.8328787e-09
4.9126288e-08
5.8035193e-09
7.310537e-09
7.0534391e-09
7.0061183e-09
6.6291314e-09
6.3217233e-09
5.6886718e-09
7.4226059e-09
3.5349128e-08
1.3689169e-07
1.6255835e-08
1.3224373e-10
1.0982566e-09
1.8999997e-07
2.7347894e-08
2.6816805e-08
2.6120321e-08
2.5008243e-08
2.3469499e-08
2.1558502e-08
1.9471043e-08
1.7321802e-08
1.5320068e-08
1.365534e-08
1.2337615e-08
1.1311777e-08
1.0441926e-08
9.3782008e-09
2.6428839e-08
2.4932551e-08
2.3303671e-08
2.1060434e-08
1.8540129e-08
1.5912847e-08
1.3442746e-08
1.1388296e-08
9.7903623e-09
8.6166426e-09
7.8823233e-09
7.6220619e-09
7.6966704e-09
7.8285064e-09
2.483354e-08
2.2241193e-08
2.0065522e-08
1.7401864e-08
1.491717e-08
1.2717286e-08
1.0998546e-08
9.6667298e-09
8.6674101e-09
8.0015317e-09
7.5253677e-09
7.1604413e-09
7.1332405e-09
7.4803184e-09
2.2500116e-08
1.8902492e-08
1.6613791e-08
1.3961848e-08
1.1873233e-08
1.0247801e-08
9.0425252e-09
8.2188611e-09
7.756986e-09
7.4463869e-09
7.2118688e-09
7.1579296e-09
7.5425514e-09
7.6362196e-09
1.9938366e-08
1.581759e-08
1.3907248e-08
1.1610794e-08
1.0122704e-08
8.9713805e-09
8.2054118e-09
7.7098096e-09
7.3739254e-09
7.1652997e-09
7.2200139e-09
7.674889e-09
7.6714284e-09
7.3911312e-09
1.3624993e-08
1.246953e-08
1.0555806e-08
9.5758422e-09
8.7951028e-09
8.2407537e-09
7.7730973e-09
7.4347208e-09
7.4523523e-09
7.950291e-09
7.9720047e-09
7.4932103e-09
7.0763568e-09
1.2936604e-08
1.2446963e-08
1.0972827e-08
1.0456113e-08
9.9031553e-09
9.3513322e-09
8.8055761e-09
8.5141013e-09
8.6920283e-09
8.7308802e-09
7.989262e-09
7.1494266e-09
6.5060793e-09
1.4077689e-08
1.4449192e-08
1.3714222e-08
1.3996678e-08
1.3924241e-08
1.3504602e-08
1.2814416e-08
1.2159613e-08
1.1532862e-08
1.0094619e-08
8.3853147e-09
7.1421383e-09
6.63851e-09
1.9596005e-08
2.1776533e-08
2.5158794e-08
2.874541e-08
3.1088854e-08
3.1382089e-08
2.8262797e-08
2.1122605e-08
1.4444492e-08
1.0899889e-08
9.6339326e-09
1.0761352e-08
2.828748e-08
3.6059709e-08
4.891036e-08
6.6609956e-08
8.6490367e-08
1.0340293e-07
1.130534e-07
1.1942617e-07
1.1042608e-07
8.0529737e-08
6.3160638e-08
8.0402811e-08
3.4060775e-08
4.3389464e-08
5.5378534e-08
6.5891357e-08
7.318539e-08
8.0966842e-08
9.8505926e-08
1.330461e-07
2.1185568e-07
3.8654491e-07
3.7574924e-07
1.4003969e-07
3.4798921e-08
3.5882296e-08
3.3241274e-08
2.8786039e-08
2.3516416e-08
1.8778234e-08
1.7252052e-08
2.3022936e-08
5.1994683e-08
9.6273239e-08
4.7058788e-08
2.7110885e-08
2.4320716e-08
1.9060165e-08
1.3167621e-08
8.5256919e-09
5.7609499e-09
4.6822605e-09
4.1001084e-09
3.2324824e-09
4.3616273e-09
1.2205907e-08
2.5565755e-08
2.1655019e-08
1.5876412e-08
1.0627234e-08
7.4517291e-09
5.9717447e-09
6.0219267e-09
8.98292e-09
1.3880162e-08
1.3222121e-08
2.6753126e-08
2.7681993e-06
7.9605601e-08
9.5877906e-09
7.0926764e-09
7.082665e-09
8.0451681e-09
9.4854696e-09
1.0628762e-08
1.3381293e-08
1.8307885e-08
1.8149746e-05
6.6598318e-08
4.9611737e-09
6.9366127e-09
7.1499089e-09
7.9269343e-09
9.7713517e-09
1.1123896e-08
1.3237702e-08
1.7371629e-08
8.349648e-06
2.266356e-07
1.1725637e-08
7.1056782e-09
7.4751949e-09
8.4542808e-09
1.0176249e-08
1.1374332e-08
1.3118045e-08
1.6874785e-08
1.112533e-06
1.1659743e-09
6.8024954e-09
7.6942039e-09
7.6918604e-09
8.6064268e-09
1.0600486e-08
1.1991462e-08
1.3265653e-08
1.6416254e-08
2.0983263e-08
4.176358e-07
1.4177346e-07
1.0199476e-08
6.986526e-09
7.7847259e-09
9.0981539e-09
1.0961052e-08
1.2444249e-08
1.3595614e-08
1.620011e-08
2.0756226e-08
2.8172786e-06
3.422591e-07
7.0018499e-09
6.9355751e-09
7.903979e-09
9.4371429e-09
1.1542884e-08
1.3084612e-08
1.39784e-08
1.6156191e-08
2.0294343e-08
1.4292355e-05
2.3684239e-08
6.5347611e-09
7.1609284e-09
8.1917755e-09
9.8275588e-09
1.1908968e-08
1.3554968e-08
1.450767e-08
1.6350252e-08
2.0201532e-08
1.1059531e-06
9.7427093e-11
5.6169998e-09
6.767472e-09
8.258874e-09
1.0077728e-08
1.2461403e-08
1.4139381e-08
1.5120603e-08
1.6743849e-08
2.0301826e-08
2.5209454e-08
9.6810534e-09
8.463506e-09
7.1851565e-09
8.5364395e-09
1.0468538e-08
1.2901507e-08
1.4592481e-08
1.5591267e-08
1.7165866e-08
2.0506614e-08
5.0804867e-09
1.9372443e-08
5.6671648e-09
6.7034119e-09
8.5679638e-09
1.0840212e-08
1.3505942e-08
1.5237121e-08
1.6149924e-08
1.7638513e-08
2.0787281e-08
7.7645932e-06
4.6702941e-08
7.0941805e-09
6.977464e-09
8.8453106e-09
1.1337693e-08
1.4133996e-08
1.5748395e-08
1.6640321e-08
1.8125253e-08
2.1127748e-08
5.2041673e-06
8.9358647e-09
6.4017992e-09
7.0950398e-09
9.0677376e-09
1.1847813e-08
1.4839473e-08
1.6444989e-08
1.7262684e-08
1.8686232e-08
2.15724e-08
7.8685631e-08
1.4400725e-08
7.4021621e-09
7.2090752e-09
9.3973416e-09
1.2275805e-08
1.5468819e-08
1.6985891e-08
1.785308e-08
1.9260984e-08
2.2118265e-08
1.1228286e-06
5.2916192e-08
7.5958394e-09
7.502647e-09
9.7397773e-09
1.2932769e-08
1.626487e-08
1.7646598e-08
1.8505479e-08
1.9915042e-08
2.2723507e-08
3.2365422e-08
2.523609e-08
3.4579669e-08
2.7812876e-08
2.7858503e-08
2.7771099e-08
2.777127e-08
2.7771518e-08
2.7771692e-08
2.7771815e-08
2.7771906e-08
2.7771975e-08
2.7772028e-08
2.7772069e-08
2.8730559e-08
2.4649354e-08
3.4232444e-08
2.7761578e-08
2.7863203e-08
2.7771211e-08
2.7771336e-08
2.7771519e-08
2.7771691e-08
2.7771815e-08
2.7771905e-08
2.7771973e-08
2.7772026e-08
2.7772067e-08
2.7804874e-08
2.3988614e-08
3.3341515e-08
2.7685428e-08
2.7864783e-08
2.7771007e-08
2.7771449e-08
2.7771524e-08
2.7771693e-08
2.7771814e-08
2.7771904e-08
2.7771972e-08
2.7772025e-08
2.7772066e-08
3.4157903e-08
2.3853077e-08
3.22951e-08
2.761962e-08
2.7856524e-08
2.7770463e-08
2.7771543e-08
2.7771528e-08
2.7771696e-08
2.7771819e-08
2.7771907e-08
2.7771974e-08
2.7772026e-08
2.7772067e-08
4.0832646e-08
2.3939871e-08
3.132683e-08
2.7574755e-08
2.7842098e-08
2.7769864e-08
2.7771591e-08
2.7771541e-08
2.7771705e-08
2.7771818e-08
2.7771906e-08
2.7771973e-08
2.7772025e-08
2.7772065e-08
4.334754e-08
2.4027974e-08
3.0456787e-08
2.7556423e-08
2.7827582e-08
2.7769361e-08
2.777158e-08
2.7771543e-08
2.7771707e-08
2.7771829e-08
2.7771914e-08
2.7771979e-08
2.7772029e-08
2.7772069e-08
4.2426043e-08
2.4279288e-08
2.9849083e-08
2.7557281e-08
2.7815202e-08
2.7769165e-08
2.7771571e-08
2.7771563e-08
2.7771722e-08
2.777183e-08
2.7771914e-08
2.7771978e-08
2.7772029e-08
2.7772068e-08
4.0310886e-08
2.475715e-08
2.940943e-08
2.7574994e-08
2.7804841e-08
2.7769184e-08
2.7771545e-08
2.7771572e-08
2.7771728e-08
3.7992712e-08
2.5274659e-08
2.9063107e-08
2.7600039e-08
2.7796598e-08
3.6435489e-08
2.5612189e-08
8.3344403e-09
8.0351436e-09
7.8553167e-09
7.7157259e-09
7.6005468e-09
7.510944e-09
7.42234e-09
7.3376744e-09
7.2685556e-09
7.2527282e-09
7.6100227e-09
6.9750136e-09
8.9314348e-09
8.3115137e-09
7.9287617e-09
7.6719684e-09
7.5053225e-09
7.4130338e-09
7.3647399e-09
7.3533034e-09
7.3774816e-09
7.484375e-09
7.8321388e-09
7.5894989e-09
1.0359314e-08
9.2976084e-09
8.5630713e-09
8.0833669e-09
7.7897208e-09
7.6273272e-09
7.5546207e-09
7.5640446e-09
7.6757583e-09
7.9202032e-09
8.4013997e-09
8.4540154e-09
1.4699635e-08
1.2672346e-08
1.121746e-08
1.0123564e-08
9.3449692e-09
8.813248e-09
8.4812001e-09
8.3228326e-09
8.3331508e-09
8.519521e-09
8.8652416e-09
9.435556e-09
9.6337336e-09
1.8074339e-08
1.5772375e-08
1.398544e-08
1.2539617e-08
1.1438408e-08
1.0631763e-08
1.008353e-08
9.7803248e-09
9.7155035e-09
9.8889988e-09
1.0248811e-08
1.0876402e-08
1.1097172e-08
2.2450317e-08
2.1442613e-08
1.9265164e-08
1.7353466e-08
1.5666942e-08
1.4280693e-08
1.3186885e-08
1.2388784e-08
1.189321e-08
1.1698432e-08
1.1799322e-08
1.2109549e-08
1.2751342e-08
1.2901613e-08
2.5042674e-08
2.4228479e-08
2.2524362e-08
2.0812747e-08
1.9137887e-08
1.7626781e-08
1.6337249e-08
1.5323464e-08
1.4632893e-08
1.428169e-08
1.4264565e-08
1.4474942e-08
1.5058857e-08
1.5091753e-08
2.6596958e-08
2.6091972e-08
2.5009597e-08
2.375842e-08
2.2380549e-08
2.0998655e-08
1.9706703e-08
1.8604402e-08
1.7785871e-08
1.7297069e-08
1.7142857e-08
1.7224294e-08
1.7665403e-08
1.7578619e-08
2.735712e-08
2.711336e-08
2.6544494e-08
2.5799013e-08
2.4879772e-08
2.3842966e-08
2.2767359e-08
2.1762603e-08
2.0946034e-08
2.0392687e-08
2.0126062e-08
2.0077517e-08
2.0328769e-08
2.012592e-08
2.764942e-08
2.7558874e-08
2.7325797e-08
2.6962034e-08
2.6449907e-08
2.5812253e-08
2.5081798e-08
2.4326224e-08
2.3649166e-08
2.313494e-08
2.2822075e-08
2.2680321e-08
2.2749046e-08
2.247238e-08
2.773628e-08
2.7708213e-08
2.7634945e-08
2.7498855e-08
2.7271675e-08
2.6942358e-08
2.6523233e-08
2.6054364e-08
2.5592539e-08
2.5198022e-08
2.4913528e-08
2.4737011e-08
2.4679955e-08
2.4383915e-08
2.7759089e-08
2.7750864e-08
2.7730456e-08
2.7689996e-08
2.7613054e-08
2.7480163e-08
2.7282154e-08
2.7031273e-08
2.676308e-08
2.6513692e-08
2.6305274e-08
2.6148211e-08
2.6041736e-08
2.5783071e-08
2.7765026e-08
2.7762572e-08
2.7756917e-08
2.7745541e-08
2.7723118e-08
2.7681037e-08
2.7607874e-08
2.7497747e-08
2.7360864e-08
2.7217923e-08
2.70856e-08
2.6967359e-08
2.6857669e-08
2.6651121e-08
2.7766873e-08
2.7766111e-08
2.7764614e-08
2.7761735e-08
2.7756108e-08
2.7745367e-08
2.7725787e-08
2.7693127e-08
2.7645029e-08
2.7586021e-08
2.7524461e-08
2.7462851e-08
2.7393928e-08
2.7278271e-08
2.7772276e-08
2.7772312e-08
2.7772318e-08
2.777232e-08
2.7772277e-08
2.7772312e-08
2.7772318e-08
2.7772277e-08
2.7772312e-08
2.7772277e-08
2.7772277e-08
2.7772303e-08
2.7772303e-08
2.7772303e-08
2.7772303e-08
2.7772303e-08
2.7772303e-08
2.7772303e-08
2.7772303e-08
2.7772303e-08
2.7772303e-08
2.7772303e-08
2.7772303e-08
2.7772303e-08
2.7772315e-08
2.7772322e-08
2.7772322e-08
2.7772322e-08
2.7772322e-08
2.7772322e-08
2.7772322e-08
2.7772322e-08
2.7772322e-08
2.7772322e-08
2.7772322e-08
2.7772321e-08
2.7772322e-08
2.7772321e-08
2.7772321e-08
2.7772321e-08
2.7772321e-08
2.7772321e-08
2.777232e-08
2.7772321e-08
2.777232e-08
2.7772319e-08
2.777232e-08
2.7772319e-08
2.7772319e-08
2.7772315e-08
2.7772319e-08
2.7772315e-08
2.7772315e-08
2.7772315e-08
2.7772316e-08
2.7772303e-08
1.2638092e-07
3.2654833e-08
3.3934115e-08
2.7877329e-08
2.7795699e-08
2.7770589e-08
2.7771274e-08
2.7771527e-08
2.7771702e-08
2.7771826e-08
2.7771916e-08
2.7771984e-08
2.7772036e-08
2.7772079e-08
9.1360654e-08
3.113938e-08
3.1775324e-08
2.7832472e-08
2.7782749e-08
2.7770997e-08
2.7771429e-08
2.7771637e-08
2.7771782e-08
2.7771887e-08
2.7771965e-08
2.7772024e-08
2.777207e-08
2.7772107e-08
8.1724181e-08
2.9979548e-08
3.058868e-08
2.7813456e-08
2.7776814e-08
2.7771261e-08
2.7771571e-08
2.7771756e-08
2.7771873e-08
2.7771958e-08
2.7772021e-08
2.777207e-08
2.7772109e-08
2.7772137e-08
7.392906e-08
2.9340969e-08
2.9800522e-08
2.7802442e-08
2.7774262e-08
2.7771424e-08
2.7771674e-08
2.7771832e-08
2.7771937e-08
2.777201e-08
2.7772065e-08
2.7772107e-08
2.7772139e-08
2.7772164e-08
2.7772322e-08
2.7772322e-08
2.7772322e-08
2.7772322e-08
2.7772322e-08
2.7772322e-08
2.7772322e-08
2.7772322e-08
2.7772322e-08
2.7772322e-08
2.7772322e-08
2.7772322e-08
2.7772322e-08
2.7772321e-08
2.7772321e-08
2.7772322e-08
2.7772322e-08
2.7772322e-08
2.7772322e-08
2.7772322e-08
2.7772322e-08
2.7772321e-08
2.7772321e-08
2.7772321e-08
2.7772321e-08
2.777232e-08
2.7772322e-08
2.7772322e-08
2.7772322e-08
2.7772322e-08
2.7772322e-08
2.7772322e-08
2.7772321e-08
2.7772321e-08
2.7772321e-08
2.7772321e-08
2.777232e-08
2.7772318e-08
2.7772312e-08
2.7772282e-08
2.7772322e-08
2.7772322e-08
2.7772322e-08
2.7772322e-08
2.7772322e-08
2.7772322e-08
2.7772321e-08
2.7772321e-08
2.7772321e-08
2.7772321e-08
2.777232e-08
2.7772318e-08
2.7772312e-08
2.7772279e-08
2.7772322e-08
2.7772322e-08
2.7772322e-08
2.7772321e-08
2.7772321e-08
2.7772321e-08
2.7772321e-08
2.777232e-08
2.7772318e-08
2.7772312e-08
2.7772277e-08
2.7772321e-08
2.7772321e-08
2.7772321e-08
2.777232e-08
2.7772318e-08
2.7772311e-08
2.7772275e-08
)
;

boundaryField
{
    Side
    {
        type            empty;
    }
    Inlet
    {
        type            inletOutlet;
        inletValue      uniform 3.9592226e-07;
        value           nonuniform List<scalar> 7(2.7772322e-08 3.9592226e-07 3.9592226e-07 3.9592226e-07 3.9592226e-07 3.9592226e-07 3.9592226e-07);
    }
    Airfoil
    {
        type            nutUSpaldingWallFunction;
        value           nonuniform List<scalar> 0();
    }
    Outlet
    {
        type            zeroGradient;
    }
    Flap
    {
        type            nutUSpaldingWallFunction;
        value           nonuniform List<scalar> 
30
(
1.3244812e-06
1.2930611e-06
1.2696012e-06
1.2546985e-06
1.2474846e-06
1.246608e-06
1.2521689e-06
1.2656152e-06
1.2894595e-06
1.2630628e-06
1.2451343e-06
4.0820666e-07
3.7938933e-06
4.2863039e-06
4.6745116e-06
4.2816123e-06
4.4375877e-06
6.7261759e-06
9.5414478e-06
9.8313749e-06
9.6352189e-06
9.2006346e-06
8.2688609e-06
4.0472396e-06
2.7397057e-06
2.6823503e-06
6.8598097e-06
6.8175568e-06
7.5696498e-06
8.2894282e-06
)
;
    }
    procBoundary4to3
    {
        type            processor;
        value           nonuniform List<scalar> 
142
(
2.7769061e-08
2.7769396e-08
2.7769396e-08
2.7769115e-08
2.7768835e-08
2.7768538e-08
2.7768233e-08
2.7767857e-08
2.7767355e-08
2.7766407e-08
2.7763643e-08
2.7752899e-08
2.7711086e-08
2.7537274e-08
2.7070597e-08
2.5902122e-08
2.5902122e-08
2.7772206e-08
2.7772206e-08
2.7772179e-08
2.7772179e-08
2.7772179e-08
2.777214e-08
2.777214e-08
2.7772083e-08
2.7772084e-08
2.7772084e-08
2.7771995e-08
2.7771998e-08
2.7771998e-08
2.7771848e-08
2.7771855e-08
2.7771855e-08
2.7771566e-08
2.7771585e-08
2.7771585e-08
2.7770952e-08
2.7770952e-08
2.7768475e-08
2.7772266e-08
2.7772273e-08
2.7772265e-08
2.7772273e-08
2.7772272e-08
2.7772272e-08
2.7772271e-08
2.7772256e-08
2.7772266e-08
2.7772256e-08
2.7772243e-08
2.7772256e-08
2.7772244e-08
2.7772227e-08
2.7772243e-08
2.7772228e-08
2.7772206e-08
2.7772227e-08
2.7772206e-08
2.776971e-08
2.7769936e-08
2.7770139e-08
2.7770289e-08
2.7770289e-08
8.3656753e-09
8.1149788e-09
8.7300129e-09
8.6914601e-09
8.7919159e-09
8.9102817e-09
1.14828e-08
1.745404e-08
5.1282684e-08
8.5264566e-08
1.8187408e-08
1.4845333e-09
3.8414846e-09
4.8725357e-08
8.7584524e-09
9.8874066e-09
1.1742057e-08
1.1742057e-08
1.5283008e-08
1.887715e-08
1.887715e-08
2.777227e-08
2.7772322e-08
2.7772322e-08
2.7772322e-08
2.7772322e-08
2.7772322e-08
2.7772322e-08
2.7772322e-08
2.7772322e-08
2.7772322e-08
2.7772321e-08
2.7772321e-08
2.7772321e-08
2.7772321e-08
2.777232e-08
2.777232e-08
2.7772319e-08
2.7772319e-08
2.7772315e-08
2.7772315e-08
2.7772315e-08
2.7772302e-08
2.7772302e-08
2.7772302e-08
2.7772303e-08
2.7772303e-08
6.7675958e-08
2.8951313e-08
2.928142e-08
2.7794991e-08
2.7773121e-08
2.7771535e-08
2.777175e-08
2.777189e-08
2.7771985e-08
2.7772049e-08
2.7772097e-08
2.7772133e-08
2.7772162e-08
2.7772185e-08
2.7772322e-08
2.7772322e-08
2.7772322e-08
2.7772322e-08
2.7772322e-08
2.7772322e-08
2.7772322e-08
2.7772322e-08
2.7772321e-08
2.7772321e-08
2.7772321e-08
2.7772321e-08
2.7772321e-08
2.777232e-08
2.7772318e-08
2.7772318e-08
2.7772312e-08
2.7772284e-08
)
;
    }
    procBoundary4to5
    {
        type            processor;
        value           nonuniform List<scalar> 
189
(
2.7771817e-08
2.7771798e-08
2.7771779e-08
2.7771758e-08
2.7771736e-08
2.7771714e-08
2.777169e-08
2.7771665e-08
2.7771632e-08
2.7771603e-08
2.777157e-08
2.7771537e-08
2.7771502e-08
2.7771466e-08
2.7772303e-08
2.7772303e-08
2.7772303e-08
2.7772304e-08
2.7772276e-08
2.7772304e-08
2.7772276e-08
2.7772277e-08
2.777227e-08
2.777227e-08
2.7772271e-08
2.7772263e-08
2.7772263e-08
2.7772264e-08
2.7772254e-08
2.7772254e-08
2.7772241e-08
2.7772241e-08
2.7772242e-08
2.7772227e-08
2.7772303e-08
2.7772227e-08
2.7772228e-08
2.7772229e-08
2.7772231e-08
2.7772232e-08
2.7772212e-08
2.7772212e-08
2.7772214e-08
2.7772216e-08
2.7772217e-08
2.7772193e-08
2.7772193e-08
2.7772196e-08
2.7772198e-08
2.7772201e-08
2.7772203e-08
2.777218e-08
2.7771914e-08
2.7772034e-08
2.7772072e-08
2.7772072e-08
2.7772106e-08
2.7772106e-08
2.7772156e-08
2.777218e-08
2.7769581e-08
2.7769442e-08
2.776932e-08
2.7731532e-08
2.7769152e-08
2.7731532e-08
2.7770896e-08
2.7770891e-08
2.777086e-08
2.7770849e-08
2.7769581e-08
2.7770866e-08
2.7771431e-08
2.7771421e-08
2.7771406e-08
2.7770896e-08
2.7771398e-08
2.7737343e-08
2.7661823e-08
2.7497361e-08
2.7190792e-08
1.7875296e-08
2.6739674e-08
1.7875296e-08
1.6807776e-08
1.7170325e-08
1.765861e-08
1.765861e-08
2.3178932e-08
2.7585648e-08
3.1405224e-08
3.1405224e-08
2.7606158e-08
2.7100968e-08
2.3504331e-08
2.3504331e-08
2.2580649e-08
2.1899784e-08
2.1899784e-08
2.5384992e-08
2.5120612e-08
2.4871894e-08
2.4714321e-08
2.4707926e-08
2.4772299e-08
2.4918908e-08
2.5128668e-08
2.5403133e-08
2.5779034e-08
2.6249747e-08
3.4809961e-08
2.7772277e-08
2.7771837e-08
2.7771919e-08
2.7771982e-08
2.7772031e-08
2.777207e-08
2.7772277e-08
2.7769469e-08
2.7771524e-08
2.777159e-08
2.7771837e-08
2.777174e-08
2.8720997e-08
2.7636123e-08
2.7769469e-08
2.7789024e-08
3.4809961e-08
2.8720997e-08
2.5994542e-08
2.7772321e-08
2.777232e-08
2.7772321e-08
2.7772321e-08
2.7772321e-08
2.777232e-08
2.7772318e-08
2.7772318e-08
2.7772312e-08
2.7772312e-08
2.7772312e-08
2.7772277e-08
2.7772315e-08
2.7772315e-08
2.7772315e-08
2.7772315e-08
2.7772315e-08
2.7772315e-08
2.7772315e-08
2.7772316e-08
2.7772316e-08
2.7772316e-08
2.7772316e-08
2.7772303e-08
2.7772316e-08
2.7772315e-08
2.7772319e-08
2.7772322e-08
2.7772322e-08
2.7772322e-08
2.7772322e-08
2.7772322e-08
2.7772322e-08
2.7772322e-08
2.7772322e-08
2.7772322e-08
2.7772322e-08
2.7772321e-08
2.7772321e-08
2.7772321e-08
2.7772321e-08
2.7772321e-08
2.7772321e-08
2.777232e-08
2.777232e-08
2.777232e-08
2.7772319e-08
2.7772319e-08
2.7772319e-08
2.7772319e-08
2.7772322e-08
2.7772322e-08
2.7772322e-08
2.7772322e-08
2.7772322e-08
2.7772322e-08
2.7772322e-08
2.7772321e-08
2.7772321e-08
)
;
    }
}


// ************************************************************************* //
