/*--------------------------------*- C++ -*----------------------------------*\
| =========                 |                                                 |
| \\      /  F ield         | OpenFOAM: The Open Source CFD Toolbox           |
|  \\    /   O peration     | Version:  2206                                  |
|   \\  /    A nd           | Website:  www.openfoam.com                      |
|    \\/     M anipulation  |                                                 |
\*---------------------------------------------------------------------------*/
FoamFile
{
    version     2.0;
    format      ascii;
    arch        "LSB;label=32;scalar=64";
    class       volScalarField;
    location    "0.02";
    object      nuTilda;
}
// * * * * * * * * * * * * * * * * * * * * * * * * * * * * * * * * * * * * * //

dimensions      [0 2 -1 0 0 0 0];

internalField   nonuniform List<scalar> 
1396
(
3.9591789e-07
3.9591759e-07
3.9591726e-07
3.9591691e-07
3.9591653e-07
3.959161e-07
3.9591563e-07
3.9591511e-07
3.9591451e-07
3.9591376e-07
3.9591297e-07
3.9591206e-07
3.9591103e-07
3.9590991e-07
3.9591899e-07
3.9591882e-07
3.9591863e-07
3.9591843e-07
3.9591817e-07
3.9591793e-07
3.9591766e-07
3.9591736e-07
3.9591704e-07
3.9591668e-07
3.9591629e-07
3.9591586e-07
3.9591538e-07
3.959148e-07
3.9591979e-07
3.9591967e-07
3.9591955e-07
3.9591942e-07
3.9591928e-07
3.9591914e-07
3.9591899e-07
3.9591882e-07
3.9591865e-07
3.9591846e-07
3.9591821e-07
3.9591798e-07
3.9591773e-07
3.9591747e-07
3.9591244e-07
3.9591149e-07
3.9591052e-07
3.959095e-07
3.9590848e-07
3.9590734e-07
3.9590597e-07
3.9590415e-07
3.9590087e-07
3.9589122e-07
3.958526e-07
3.9568161e-07
3.9505969e-07
3.9293306e-07
3.9591342e-07
3.9591255e-07
3.9591171e-07
3.959108e-07
3.9590986e-07
3.959088e-07
3.9590762e-07
3.9590624e-07
3.9590445e-07
3.9590117e-07
3.958907e-07
3.9584823e-07
3.9566531e-07
3.9487503e-07
3.9591428e-07
3.959135e-07
3.9591271e-07
3.959119e-07
3.9591106e-07
3.9591013e-07
3.9590905e-07
3.9590782e-07
3.9590637e-07
3.9590452e-07
3.9590093e-07
3.9588953e-07
3.9583909e-07
3.9560738e-07
3.95915e-07
3.959143e-07
3.9591361e-07
3.9591288e-07
3.9591211e-07
3.9591125e-07
3.9591028e-07
3.9590917e-07
3.9590793e-07
3.9590642e-07
3.9590432e-07
3.9590028e-07
3.9588671e-07
3.9582566e-07
3.9591561e-07
3.9591495e-07
3.9591433e-07
3.9591366e-07
3.9591295e-07
3.959122e-07
3.9591129e-07
3.9591025e-07
3.9590907e-07
3.9590778e-07
3.9590614e-07
3.9590388e-07
3.9589924e-07
3.9588272e-07
3.9591626e-07
3.9591565e-07
3.9591507e-07
3.9591449e-07
3.9591382e-07
3.959131e-07
3.9591229e-07
3.9591137e-07
3.9591031e-07
3.959091e-07
3.9590767e-07
3.9590592e-07
3.9590341e-07
3.9589783e-07
3.9591662e-07
3.9591605e-07
3.9591552e-07
3.9591495e-07
3.9591437e-07
3.9591371e-07
3.9591295e-07
3.959121e-07
3.9591114e-07
3.9590998e-07
3.9590866e-07
3.9590708e-07
3.9590512e-07
3.9590237e-07
3.9591724e-07
3.9591673e-07
3.9591624e-07
3.9591575e-07
3.9591519e-07
3.959146e-07
3.959139e-07
3.9591311e-07
3.9591223e-07
3.9591118e-07
3.9590998e-07
3.9590856e-07
3.9590688e-07
3.9590481e-07
3.9592208e-07
3.9592208e-07
3.9592208e-07
3.9592208e-07
3.9592208e-07
3.9592205e-07
3.9592205e-07
3.9592205e-07
3.9592206e-07
3.9592206e-07
3.9592206e-07
3.9592206e-07
3.9592201e-07
3.9592202e-07
3.9592202e-07
3.9592202e-07
3.9592202e-07
3.9592202e-07
3.9592203e-07
3.9592203e-07
3.9592203e-07
3.9592197e-07
3.9592197e-07
3.9592197e-07
3.9592197e-07
3.9592198e-07
3.9592198e-07
3.9592199e-07
3.9592199e-07
3.9592199e-07
3.9592199e-07
3.95922e-07
3.9592191e-07
3.9592191e-07
3.9592191e-07
3.9592192e-07
3.9592192e-07
3.9592192e-07
3.9592193e-07
3.9592193e-07
3.9592194e-07
3.9592194e-07
3.9592195e-07
3.9592195e-07
3.9592183e-07
3.9592184e-07
3.9592184e-07
3.9592184e-07
3.9592185e-07
3.9592185e-07
3.9592186e-07
3.9592186e-07
3.9592187e-07
3.9592188e-07
3.9592188e-07
3.9592189e-07
3.9592189e-07
3.9592173e-07
3.9592174e-07
3.9592174e-07
3.9592175e-07
3.9592176e-07
3.9592176e-07
3.9592177e-07
3.9592178e-07
3.9592179e-07
3.9592179e-07
3.959218e-07
3.9592159e-07
3.9592159e-07
3.959216e-07
3.9592161e-07
3.9592162e-07
3.9592163e-07
3.9592164e-07
3.9592165e-07
3.9592166e-07
3.9592167e-07
3.9592138e-07
3.9592139e-07
3.9592141e-07
3.9592142e-07
3.9592143e-07
3.9592144e-07
3.9592147e-07
3.9592147e-07
3.9592107e-07
3.9592108e-07
3.9592111e-07
3.9592113e-07
3.9592116e-07
3.9592116e-07
3.9592054e-07
3.9592058e-07
3.9592062e-07
3.9592063e-07
3.9591961e-07
3.9591956e-07
3.9591696e-07
3.9592208e-07
3.9592208e-07
3.9592208e-07
3.9592208e-07
3.9592208e-07
3.9592208e-07
3.9592208e-07
3.9592208e-07
3.9592208e-07
3.9592208e-07
3.9592205e-07
3.9592205e-07
3.9592205e-07
3.9592205e-07
3.9592205e-07
3.9592205e-07
3.9592205e-07
3.9592205e-07
3.9592201e-07
3.9592201e-07
3.9592201e-07
3.9592201e-07
3.9592201e-07
3.9592201e-07
3.9592196e-07
3.9592197e-07
3.9592196e-07
3.9592197e-07
3.959219e-07
3.959219e-07
3.959179e-07
3.9591988e-07
3.9592076e-07
3.9592122e-07
3.9592151e-07
3.9592169e-07
3.9592181e-07
3.9591821e-07
3.9591998e-07
3.9592081e-07
3.9592125e-07
3.9592153e-07
3.959217e-07
3.9592182e-07
3.9591846e-07
3.9592007e-07
3.9592085e-07
3.9592128e-07
3.9592154e-07
3.9592171e-07
3.9592182e-07
3.9591866e-07
3.9592015e-07
3.9592089e-07
3.959213e-07
3.9592155e-07
3.9592172e-07
3.9592184e-07
3.9591516e-07
3.9591887e-07
3.9592024e-07
3.9592094e-07
3.9592133e-07
3.9592157e-07
3.9592173e-07
3.9592184e-07
3.9591563e-07
3.9591905e-07
3.9592032e-07
3.9592098e-07
3.9592135e-07
3.9592159e-07
3.9592174e-07
3.9591608e-07
3.9591923e-07
3.959204e-07
3.9592102e-07
3.9592138e-07
3.959216e-07
3.9592175e-07
3.9591655e-07
3.9591938e-07
3.9592048e-07
3.9592106e-07
3.959214e-07
3.9592161e-07
3.9592176e-07
3.9591693e-07
3.9591954e-07
3.9592055e-07
3.959211e-07
3.9592142e-07
3.9592163e-07
3.9592177e-07
3.9591736e-07
3.9591968e-07
3.9592062e-07
3.9592114e-07
3.9592144e-07
3.9592164e-07
3.9591763e-07
3.959198e-07
3.9592068e-07
3.9592117e-07
3.9592146e-07
3.9592166e-07
3.9591803e-07
3.9591995e-07
3.9592075e-07
3.9592121e-07
3.9592149e-07
3.9592167e-07
3.959182e-07
3.9592002e-07
3.9592079e-07
3.9592123e-07
3.959215e-07
3.9592168e-07
3.959186e-07
3.9592018e-07
3.9592087e-07
3.9592128e-07
3.9592153e-07
3.959217e-07
3.9591911e-07
3.9591981e-07
3.9592034e-07
3.9592035e-07
3.9592068e-07
3.9592095e-07
3.9592097e-07
3.9592115e-07
3.9592134e-07
3.9592157e-07
3.9590887e-07
3.9590811e-07
3.9590724e-07
3.9590621e-07
3.9590479e-07
3.9590216e-07
3.9589799e-07
3.9589133e-07
3.9588121e-07
3.9586682e-07
3.9584921e-07
3.958292e-07
3.9580303e-07
3.9591431e-07
3.9591408e-07
3.9591388e-07
3.9591359e-07
3.9591339e-07
3.959132e-07
3.9591293e-07
3.9591268e-07
3.9591243e-07
3.9591725e-07
3.9591713e-07
3.9591705e-07
3.9591697e-07
2.7530415e-07
2.7833474e-07
2.8854432e-07
2.9530471e-07
3.0468555e-07
3.1655125e-07
3.5025362e-07
4.12752e-07
5.7904755e-07
6.472405e-07
4.0528703e-07
2.0489845e-07
2.6412447e-07
6.0008044e-07
2.7432808e-07
2.7882538e-07
2.8860192e-07
2.9577042e-07
3.0603055e-07
3.1938684e-07
3.556385e-07
4.3874893e-07
6.1941636e-07
6.1637744e-07
3.6865244e-07
2.0141453e-07
2.5979812e-07
6.2119565e-07
2.7400258e-07
2.7891877e-07
2.8865258e-07
2.9581025e-07
3.0722363e-07
3.2147908e-07
3.5995909e-07
4.6832844e-07
6.5212133e-07
5.8439265e-07
3.3762683e-07
2.0214635e-07
2.5898773e-07
6.340559e-07
2.7370109e-07
2.7849144e-07
2.8827122e-07
2.9530077e-07
3.0751905e-07
3.223903e-07
3.6227833e-07
4.9439948e-07
6.7332984e-07
5.5909025e-07
3.1527088e-07
2.0405802e-07
2.5890673e-07
6.4002838e-07
2.729176e-07
2.7807927e-07
2.8745122e-07
2.9457982e-07
3.0729094e-07
3.2220919e-07
3.6271927e-07
5.1330237e-07
6.8683238e-07
5.4080334e-07
2.9972593e-07
2.0522551e-07
2.5913913e-07
6.4413117e-07
2.7176884e-07
2.7748236e-07
2.8631204e-07
2.9349055e-07
3.0626389e-07
3.2093083e-07
3.6064108e-07
5.2281091e-07
6.9717984e-07
5.3261194e-07
2.9073084e-07
2.0347124e-07
2.5848336e-07
6.4932735e-07
2.7013552e-07
2.7660691e-07
2.8462815e-07
2.9177086e-07
3.0413715e-07
3.1794234e-07
3.5395128e-07
5.1927784e-07
7.0713742e-07
5.4233949e-07
2.9162236e-07
1.9707219e-07
2.5603736e-07
6.5223646e-07
2.6775896e-07
2.7537953e-07
2.8241704e-07
2.8942215e-07
3.0086778e-07
3.1270359e-07
3.4215018e-07
4.9496765e-07
7.064405e-07
5.7029993e-07
3.0616806e-07
1.8739749e-07
2.4661081e-07
6.4841015e-07
2.6504573e-07
2.7326607e-07
2.7917662e-07
2.8609441e-07
2.965414e-07
3.079389e-07
3.3263035e-07
4.6199178e-07
7.0290954e-07
6.2237559e-07
3.3243023e-07
1.7783851e-07
2.4902548e-07
6.4293612e-07
2.6140474e-07
2.7169771e-07
2.7688214e-07
2.8384231e-07
2.9258487e-07
3.0154259e-07
3.17777e-07
4.040272e-07
6.3441118e-07
6.8175506e-07
3.70973e-07
1.6983264e-07
2.3224568e-07
6.3585935e-07
2.6272944e-07
2.6984083e-07
2.7344713e-07
2.8029332e-07
2.8832411e-07
2.9950719e-07
3.2249199e-07
3.8129403e-07
6.0027341e-07
7.4914797e-07
4.4186658e-07
1.9281998e-07
2.7555394e-07
6.0814175e-07
2.4777449e-07
2.6625022e-07
2.7085664e-07
2.7885951e-07
2.8462011e-07
2.9133925e-07
2.9453584e-07
3.3232117e-07
5.4169748e-07
8.4374126e-07
4.9099471e-07
1.3075363e-07
2.3275567e-07
9.7781596e-07
3.9429594e-07
3.9222416e-07
3.8943355e-07
3.8482358e-07
3.7812692e-07
3.6921967e-07
3.584578e-07
3.4595373e-07
3.3266831e-07
3.1980116e-07
3.0772796e-07
2.9648728e-07
2.8614036e-07
2.7571315e-07
3.9070562e-07
3.8462913e-07
3.7756211e-07
3.6707845e-07
3.5399074e-07
3.3850952e-07
3.2169226e-07
3.0529427e-07
2.9040564e-07
2.777181e-07
2.6807714e-07
2.6250213e-07
2.6100357e-07
2.6254964e-07
3.8413578e-07
3.7271312e-07
3.6192612e-07
3.4723913e-07
3.3139941e-07
3.1509011e-07
3.0012287e-07
2.8690896e-07
2.7603751e-07
2.6806275e-07
2.6175967e-07
2.5661755e-07
2.5602552e-07
2.6208863e-07
3.7366395e-07
3.558067e-07
3.4210795e-07
3.2425401e-07
3.0752473e-07
2.9235887e-07
2.7968712e-07
2.7033077e-07
2.646168e-07
2.6068111e-07
2.5773859e-07
2.5739721e-07
2.6369772e-07
2.6995717e-07
3.6060357e-07
3.3705959e-07
3.2269079e-07
3.040124e-07
2.893618e-07
2.7704705e-07
2.6846966e-07
2.6305049e-07
2.5968334e-07
2.5794605e-07
2.5959192e-07
2.6698782e-07
2.7204215e-07
2.7628411e-07
3.2048551e-07
3.086695e-07
2.9106038e-07
2.8002158e-07
2.7161908e-07
2.6632977e-07
2.6266771e-07
2.6078478e-07
2.6322619e-07
2.7202233e-07
2.7740141e-07
2.7925146e-07
2.8323022e-07
3.1197373e-07
3.0352599e-07
2.8916619e-07
2.8256271e-07
2.7762107e-07
2.7427595e-07
2.7210832e-07
2.7319891e-07
2.8017264e-07
2.86985e-07
2.8659497e-07
2.8610493e-07
2.8849765e-07
3.1524315e-07
3.1163058e-07
3.0301441e-07
3.0235268e-07
3.020877e-07
3.020975e-07
3.0251237e-07
3.0504647e-07
3.0936406e-07
3.0696282e-07
3.0042716e-07
2.9797873e-07
3.0348578e-07
3.3584063e-07
3.4093971e-07
3.5236281e-07
3.6608708e-07
3.7788583e-07
3.8630779e-07
3.8605872e-07
3.6850226e-07
3.4480936e-07
3.3239871e-07
3.3836664e-07
3.6626256e-07
3.722169e-07
3.934755e-07
4.265816e-07
4.6713112e-07
5.0880565e-07
5.4524473e-07
5.7324354e-07
5.9894468e-07
6.0521754e-07
5.811175e-07
5.8090272e-07
6.6584658e-07
3.9732159e-07
4.2248116e-07
4.5358746e-07
4.814965e-07
5.0367237e-07
5.2672791e-07
5.6561824e-07
6.2904856e-07
7.4531294e-07
9.5502768e-07
1.0313268e-06
8.0918743e-07
4.0707236e-07
4.1365252e-07
4.1058812e-07
4.0029924e-07
3.8319828e-07
3.6492505e-07
3.6151896e-07
3.9197618e-07
4.8854229e-07
6.0160884e-07
5.3057304e-07
3.8639575e-07
3.7781428e-07
3.5862324e-07
3.3177342e-07
3.0552332e-07
2.8848618e-07
2.8333797e-07
2.7026628e-07
2.3556411e-07
2.3313843e-07
3.0710813e-07
3.8473863e-07
3.7113327e-07
3.4948542e-07
3.2849385e-07
3.1952721e-07
3.2501513e-07
3.5079543e-07
4.1719539e-07
4.8304672e-07
4.4079017e-07
4.3735035e-07
3.7002636e-06
8.7942552e-07
4.5680131e-07
3.7706864e-07
3.4919072e-07
3.4667279e-07
3.475659e-07
3.3952324e-07
3.4267987e-07
3.6053132e-07
1.8195607e-05
8.3111362e-07
3.8231074e-07
3.7273337e-07
3.4797867e-07
3.4362659e-07
3.5018457e-07
3.4530729e-07
3.4402089e-07
3.5724213e-07
8.3498876e-06
1.1333688e-06
4.7374378e-07
3.7251599e-07
3.4967555e-07
3.4755489e-07
3.5346826e-07
3.4868928e-07
3.4546922e-07
3.5638701e-07
2.0639867e-06
2.9233571e-07
4.0969174e-07
3.7782103e-07
3.5018505e-07
3.472333e-07
3.5633453e-07
3.5448625e-07
3.4856535e-07
3.5573025e-07
3.7199847e-07
8.8527365e-07
1.002202e-06
4.5168553e-07
3.6628215e-07
3.4939259e-07
3.5033921e-07
3.5824234e-07
3.583682e-07
3.5255487e-07
3.5645703e-07
3.7233754e-07
3.5188276e-06
1.2942042e-06
4.0603499e-07
3.636302e-07
3.4927049e-07
3.5189381e-07
3.6164432e-07
3.6299603e-07
3.5649085e-07
3.5811324e-07
3.7166298e-07
1.4292977e-05
6.1307365e-07
3.9528777e-07
3.650888e-07
3.5123041e-07
3.5395493e-07
3.630316e-07
3.6573399e-07
3.6083713e-07
3.6090704e-07
3.7273416e-07
2.4236939e-06
1.5253265e-07
3.7839378e-07
3.5842336e-07
3.5074349e-07
3.5467821e-07
3.6564799e-07
3.6864921e-07
3.6495935e-07
3.6445492e-07
3.7466878e-07
7.4856541e-07
4.8164973e-07
4.176419e-07
3.6217216e-07
3.5236107e-07
3.5652159e-07
3.6720814e-07
3.7026018e-07
3.6750919e-07
3.6771033e-07
3.7700668e-07
5.1354544e-07
5.7227477e-07
3.7448774e-07
3.5413586e-07
3.5119836e-07
3.5800299e-07
3.6980048e-07
3.7297895e-07
3.7017472e-07
3.7081951e-07
3.7954045e-07
7.9335699e-06
7.1074941e-07
3.9383693e-07
3.5621527e-07
3.5243857e-07
3.6037771e-07
3.7240896e-07
3.7492994e-07
3.7230234e-07
3.7361237e-07
3.8206082e-07
5.5702117e-06
4.5807418e-07
3.818268e-07
3.5635496e-07
3.5297554e-07
3.6268604e-07
3.7537755e-07
3.7807305e-07
3.7523912e-07
3.7647312e-07
3.8460528e-07
1.0771449e-06
5.1125434e-07
3.9432084e-07
3.5637049e-07
3.5440274e-07
3.6416134e-07
3.7762954e-07
3.8017255e-07
3.7798734e-07
3.7919642e-07
3.8715239e-07
2.327867e-06
7.0860721e-07
3.9463825e-07
3.5838405e-07
3.5588153e-07
3.6721004e-07
3.8075996e-07
3.8282521e-07
3.8097659e-07
3.8228564e-07
3.8975279e-07
4.125796e-07
3.9806698e-07
4.1804879e-07
3.9620699e-07
3.9623398e-07
3.9591779e-07
3.9591831e-07
3.9591923e-07
3.9591989e-07
3.9592035e-07
3.959207e-07
3.9592095e-07
3.9592115e-07
3.9592131e-07
4.0212978e-07
3.9415766e-07
4.1717564e-07
3.9600892e-07
3.9625855e-07
3.9591847e-07
3.9591855e-07
3.9591924e-07
3.9591989e-07
3.9592035e-07
3.9592069e-07
3.9592095e-07
3.9592115e-07
3.959213e-07
3.9492882e-07
3.9006553e-07
4.1484189e-07
3.9573211e-07
3.9626839e-07
3.9591781e-07
3.9591898e-07
3.9591926e-07
3.9591989e-07
3.9592035e-07
3.9592069e-07
3.9592094e-07
3.9592114e-07
3.959213e-07
4.1229747e-07
3.8786967e-07
4.1201177e-07
3.9547264e-07
3.9623992e-07
3.9591579e-07
3.9591933e-07
3.9591927e-07
3.959199e-07
3.9592037e-07
3.959207e-07
3.9592095e-07
3.9592115e-07
3.959213e-07
4.2899225e-07
3.8594268e-07
4.0915168e-07
3.9526966e-07
3.9618788e-07
3.9591346e-07
3.9591951e-07
3.9591932e-07
3.9591994e-07
3.9592036e-07
3.9592069e-07
3.9592095e-07
3.9592114e-07
3.9592129e-07
4.3559255e-07
3.8392354e-07
4.0630359e-07
3.9515853e-07
3.9613413e-07
3.9591141e-07
3.9591948e-07
3.9591933e-07
3.9591995e-07
3.959204e-07
3.9592072e-07
3.9592097e-07
3.9592116e-07
3.9592131e-07
4.3633665e-07
3.8317516e-07
4.0418527e-07
3.9512516e-07
3.960878e-07
3.959105e-07
3.9591945e-07
3.959194e-07
3.9592e-07
3.9592041e-07
3.9592073e-07
3.9592097e-07
3.9592116e-07
3.959213e-07
4.3578187e-07
3.8393956e-07
4.0258148e-07
3.9516743e-07
3.9604872e-07
3.9591044e-07
3.9591935e-07
3.9591944e-07
3.9592002e-07
4.3427806e-07
3.8528324e-07
4.0123344e-07
3.9524966e-07
3.9601711e-07
4.3253204e-07
3.8628445e-07
2.7563826e-07
2.7245696e-07
2.7051686e-07
2.6898502e-07
2.6764517e-07
2.6644472e-07
2.6502882e-07
2.6339597e-07
2.6173004e-07
2.608666e-07
2.6384701e-07
2.5804627e-07
2.8225796e-07
2.7563804e-07
2.7119619e-07
2.6807914e-07
2.6594238e-07
2.6456652e-07
2.6358349e-07
2.6290458e-07
2.6273621e-07
2.6347902e-07
2.6738928e-07
2.6519248e-07
2.9631618e-07
2.8628404e-07
2.7868484e-07
2.733221e-07
2.697775e-07
2.6759504e-07
2.6640003e-07
2.6613652e-07
2.6719617e-07
2.6955482e-07
2.7505235e-07
2.7562115e-07
3.3015633e-07
3.158276e-07
3.0410738e-07
2.9439644e-07
2.8689043e-07
2.8139448e-07
2.777085e-07
2.7574851e-07
2.7555796e-07
2.7735729e-07
2.8065104e-07
2.8672746e-07
2.8859251e-07
3.511607e-07
3.3757499e-07
3.2565714e-07
3.1501531e-07
3.0616038e-07
2.9916183e-07
2.940749e-07
2.9106675e-07
2.9026462e-07
2.9179065e-07
2.9496331e-07
3.0085424e-07
3.0279481e-07
3.7376766e-07
3.6886479e-07
3.5791532e-07
3.4730892e-07
3.3707476e-07
3.2791038e-07
3.2010394e-07
3.1401098e-07
3.1001296e-07
3.0834872e-07
3.0911052e-07
3.1154436e-07
3.1669622e-07
3.1792009e-07
3.8512446e-07
3.8164061e-07
3.7407119e-07
3.6591901e-07
3.5735124e-07
3.4903412e-07
3.4142173e-07
3.3504622e-07
3.3047568e-07
3.2806688e-07
3.2793092e-07
3.2937037e-07
3.3334806e-07
3.3362622e-07
3.9141869e-07
3.8941578e-07
3.8499283e-07
3.7964777e-07
3.7346468e-07
3.6691462e-07
3.6043563e-07
3.5460185e-07
3.5006765e-07
3.472725e-07
3.4637533e-07
3.4686422e-07
3.4943646e-07
3.4894464e-07
3.9435295e-07
3.9341905e-07
3.9121759e-07
3.8825266e-07
3.8447062e-07
3.8004832e-07
3.7527745e-07
3.7063709e-07
3.6672419e-07
3.639961e-07
3.6265675e-07
3.624181e-07
3.6369245e-07
3.6264073e-07
3.9545896e-07
3.9511599e-07
3.9423245e-07
3.9284126e-07
3.9085228e-07
3.8831278e-07
3.8532081e-07
3.8214378e-07
3.7922282e-07
3.7695344e-07
3.7554706e-07
3.749035e-07
3.7520943e-07
3.739102e-07
3.9578649e-07
3.956805e-07
3.9540395e-07
3.9488977e-07
3.9402806e-07
3.9276809e-07
3.9114098e-07
3.892818e-07
3.8741527e-07
3.8579731e-07
3.8461372e-07
3.8387032e-07
3.83621e-07
3.8233721e-07
3.9587245e-07
3.9584143e-07
3.957645e-07
3.9561193e-07
3.953217e-07
3.9481996e-07
3.9406933e-07
3.9311074e-07
3.920729e-07
3.9109214e-07
3.9026483e-07
3.8963586e-07
3.8920208e-07
3.88141e-07
3.9589481e-07
3.9588556e-07
3.9586426e-07
3.958214e-07
3.9573692e-07
3.9557833e-07
3.9530261e-07
3.9488718e-07
3.9436888e-07
3.9382364e-07
3.9331222e-07
3.9285273e-07
3.9242208e-07
3.9160521e-07
3.9590176e-07
3.9589889e-07
3.9589325e-07
3.9588241e-07
3.9586121e-07
3.9582075e-07
3.9574702e-07
3.9562407e-07
3.9544319e-07
3.9522107e-07
3.9498795e-07
3.9475253e-07
3.9448721e-07
3.9403945e-07
3.9592209e-07
3.9592222e-07
3.9592224e-07
3.9592225e-07
3.9592209e-07
3.9592222e-07
3.9592224e-07
3.9592209e-07
3.9592222e-07
3.9592209e-07
3.9592209e-07
3.9592219e-07
3.9592219e-07
3.9592219e-07
3.9592219e-07
3.9592219e-07
3.9592219e-07
3.9592219e-07
3.9592219e-07
3.9592219e-07
3.9592219e-07
3.9592219e-07
3.9592219e-07
3.9592219e-07
3.9592223e-07
3.9592226e-07
3.9592226e-07
3.9592226e-07
3.9592226e-07
3.9592226e-07
3.9592226e-07
3.9592226e-07
3.9592226e-07
3.9592226e-07
3.9592226e-07
3.9592226e-07
3.9592226e-07
3.9592226e-07
3.9592226e-07
3.9592225e-07
3.9592226e-07
3.9592225e-07
3.9592225e-07
3.9592225e-07
3.9592225e-07
3.9592225e-07
3.9592225e-07
3.9592225e-07
3.9592225e-07
3.9592223e-07
3.9592225e-07
3.9592223e-07
3.9592223e-07
3.9592224e-07
3.9592224e-07
3.9592219e-07
5.0159898e-07
4.1582165e-07
4.1624715e-07
3.9646473e-07
3.96013e-07
3.9591578e-07
3.9591832e-07
3.9591927e-07
3.9591993e-07
3.9592039e-07
3.9592073e-07
3.9592099e-07
3.9592118e-07
3.9592134e-07
4.7888692e-07
4.1038917e-07
4.0961108e-07
3.9623507e-07
3.9596212e-07
3.9591729e-07
3.959189e-07
3.9591968e-07
3.9592023e-07
3.9592062e-07
3.9592092e-07
3.9592114e-07
3.9592131e-07
3.9592145e-07
4.7337215e-07
4.0573597e-07
4.0577939e-07
3.9612735e-07
3.9593947e-07
3.9591828e-07
3.9591944e-07
3.9592013e-07
3.9592057e-07
3.9592089e-07
3.9592113e-07
3.9592131e-07
3.9592146e-07
3.9592157e-07
4.6852571e-07
4.0292169e-07
4.0314497e-07
3.9606572e-07
3.9592975e-07
3.9591889e-07
3.9591982e-07
3.9592042e-07
3.9592081e-07
3.9592109e-07
3.9592129e-07
3.9592145e-07
3.9592157e-07
3.9592167e-07
3.9592226e-07
3.9592226e-07
3.9592226e-07
3.9592226e-07
3.9592226e-07
3.9592226e-07
3.9592226e-07
3.9592226e-07
3.9592226e-07
3.9592226e-07
3.9592226e-07
3.9592226e-07
3.9592226e-07
3.9592226e-07
3.9592226e-07
3.9592226e-07
3.9592226e-07
3.9592226e-07
3.9592226e-07
3.9592226e-07
3.9592226e-07
3.9592226e-07
3.9592226e-07
3.9592226e-07
3.9592225e-07
3.9592225e-07
3.9592226e-07
3.9592226e-07
3.9592226e-07
3.9592226e-07
3.9592226e-07
3.9592226e-07
3.9592226e-07
3.9592226e-07
3.9592226e-07
3.9592225e-07
3.9592225e-07
3.9592224e-07
3.9592222e-07
3.9592211e-07
3.9592226e-07
3.9592226e-07
3.9592226e-07
3.9592226e-07
3.9592226e-07
3.9592226e-07
3.9592226e-07
3.9592226e-07
3.9592226e-07
3.9592225e-07
3.9592225e-07
3.9592224e-07
3.9592222e-07
3.959221e-07
3.9592226e-07
3.9592226e-07
3.9592226e-07
3.9592226e-07
3.9592226e-07
3.9592226e-07
3.9592225e-07
3.9592225e-07
3.9592224e-07
3.9592222e-07
3.9592209e-07
3.9592226e-07
3.9592226e-07
3.9592225e-07
3.9592225e-07
3.9592224e-07
3.9592222e-07
3.9592208e-07
)
;

boundaryField
{
    Side
    {
        type            empty;
    }
    Inlet
    {
        type            inletOutlet;
        inletValue      uniform 3.9592226e-07;
        value           nonuniform List<scalar> 7(3.9592226e-07 3.9592226e-07 3.9592226e-07 3.9592226e-07 3.9592226e-07 3.9592226e-07 3.9592226e-07);
    }
    Airfoil
    {
        type            nutUSpaldingWallFunction;
        value           nonuniform List<scalar> 0();
    }
    Outlet
    {
        type            zeroGradient;
    }
    Flap
    {
        type            nutUSpaldingWallFunction;
        value           nonuniform List<scalar> 
30
(
1.3244812e-06
1.2930611e-06
1.2696012e-06
1.2546985e-06
1.2474846e-06
1.246608e-06
1.2521689e-06
1.2656152e-06
1.2894595e-06
1.2630628e-06
1.2451343e-06
4.0820932e-07
3.7941809e-06
4.2866073e-06
4.6748337e-06
4.2821704e-06
4.4386549e-06
6.7283495e-06
9.5426919e-06
9.8322803e-06
9.6360201e-06
9.2013124e-06
8.2697902e-06
4.0477007e-06
2.7397154e-06
2.6823503e-06
6.8598098e-06
6.8175572e-06
7.5696501e-06
8.2894284e-06
)
;
    }
    procBoundary4to3
    {
        type            processor;
        value           nonuniform List<scalar> 
142
(
3.9590999e-07
3.9591125e-07
3.9591125e-07
3.959102e-07
3.9590914e-07
3.9590802e-07
3.9590688e-07
3.9590546e-07
3.9590357e-07
3.959e-07
3.9588959e-07
3.9584911e-07
3.9569126e-07
3.9503444e-07
3.9324096e-07
3.8855191e-07
3.8855191e-07
3.9592182e-07
3.9592182e-07
3.9592172e-07
3.9592172e-07
3.9592172e-07
3.9592157e-07
3.9592157e-07
3.9592136e-07
3.9592136e-07
3.9592136e-07
3.9592103e-07
3.9592104e-07
3.9592104e-07
3.9592048e-07
3.959205e-07
3.959205e-07
3.9591942e-07
3.9591949e-07
3.9591949e-07
3.959171e-07
3.959171e-07
3.9590779e-07
3.9592205e-07
3.9592207e-07
3.9592205e-07
3.9592207e-07
3.9592207e-07
3.9592207e-07
3.9592207e-07
3.9592201e-07
3.9592205e-07
3.9592201e-07
3.9592196e-07
3.9592201e-07
3.9592197e-07
3.959219e-07
3.9592196e-07
3.959219e-07
3.9592182e-07
3.959219e-07
3.9592182e-07
3.9591243e-07
3.9591328e-07
3.9591405e-07
3.9591461e-07
3.9591461e-07
2.7660689e-07
2.7718494e-07
2.8774041e-07
2.942857e-07
3.0301634e-07
3.13154e-07
3.4464164e-07
3.9600397e-07
5.4861165e-07
6.6689713e-07
4.3270805e-07
2.1219592e-07
2.7139751e-07
5.7936687e-07
2.8025932e-07
2.9162314e-07
3.0822729e-07
3.0822729e-07
3.3502418e-07
3.560913e-07
3.560913e-07
3.9592207e-07
3.9592226e-07
3.9592226e-07
3.9592226e-07
3.9592226e-07
3.9592226e-07
3.9592226e-07
3.9592226e-07
3.9592226e-07
3.9592226e-07
3.9592226e-07
3.9592226e-07
3.9592226e-07
3.9592225e-07
3.9592225e-07
3.9592225e-07
3.9592225e-07
3.9592225e-07
3.9592223e-07
3.9592223e-07
3.9592223e-07
3.9592219e-07
3.9592219e-07
3.9592219e-07
3.9592219e-07
3.9592219e-07
4.6394325e-07
4.0111861e-07
4.0136623e-07
3.9602627e-07
3.9592539e-07
3.959193e-07
3.9592011e-07
3.9592063e-07
3.9592099e-07
3.9592123e-07
3.9592141e-07
3.9592155e-07
3.9592166e-07
3.9592175e-07
3.9592226e-07
3.9592226e-07
3.9592226e-07
3.9592226e-07
3.9592226e-07
3.9592226e-07
3.9592226e-07
3.9592226e-07
3.9592226e-07
3.9592226e-07
3.9592226e-07
3.9592226e-07
3.9592225e-07
3.9592225e-07
3.9592224e-07
3.9592224e-07
3.9592222e-07
3.9592212e-07
)
;
    }
    procBoundary4to5
    {
        type            processor;
        value           nonuniform List<scalar> 
189
(
3.9592036e-07
3.9592029e-07
3.9592022e-07
3.9592014e-07
3.9592006e-07
3.9591997e-07
3.9591988e-07
3.9591979e-07
3.9591966e-07
3.9591956e-07
3.9591943e-07
3.9591931e-07
3.9591917e-07
3.9591904e-07
3.9592219e-07
3.9592219e-07
3.9592219e-07
3.9592219e-07
3.9592209e-07
3.9592219e-07
3.9592209e-07
3.9592209e-07
3.9592206e-07
3.9592206e-07
3.9592207e-07
3.9592204e-07
3.9592204e-07
3.9592204e-07
3.95922e-07
3.95922e-07
3.9592195e-07
3.9592195e-07
3.9592196e-07
3.959219e-07
3.9592219e-07
3.959219e-07
3.9592191e-07
3.9592191e-07
3.9592192e-07
3.9592192e-07
3.9592185e-07
3.9592185e-07
3.9592185e-07
3.9592186e-07
3.9592187e-07
3.9592178e-07
3.9592178e-07
3.9592179e-07
3.9592179e-07
3.959218e-07
3.9592181e-07
3.9592173e-07
3.9592072e-07
3.9592118e-07
3.9592132e-07
3.9592132e-07
3.9592145e-07
3.9592145e-07
3.9592164e-07
3.9592173e-07
3.9591195e-07
3.9591143e-07
3.9591097e-07
3.9576823e-07
3.9591034e-07
3.9576823e-07
3.959169e-07
3.9591687e-07
3.9591676e-07
3.9591672e-07
3.9591195e-07
3.9591678e-07
3.9591891e-07
3.9591887e-07
3.9591881e-07
3.959169e-07
3.9591878e-07
3.9578979e-07
3.955029e-07
3.9487235e-07
3.9367434e-07
3.4809553e-07
3.9185462e-07
3.4809553e-07
3.3953747e-07
3.3855644e-07
3.3256165e-07
3.3256165e-07
3.5832597e-07
3.7941607e-07
3.9596319e-07
3.9596319e-07
3.8807077e-07
3.9038067e-07
3.7999989e-07
3.7999989e-07
3.7700086e-07
3.7500257e-07
3.7500257e-07
3.8822382e-07
3.8788274e-07
3.8771135e-07
3.8799381e-07
3.8896329e-07
3.9028138e-07
3.9195912e-07
3.9379271e-07
3.9556034e-07
3.9728442e-07
3.9906045e-07
4.2734611e-07
3.9592209e-07
3.9592044e-07
3.9592075e-07
3.9592098e-07
3.9592117e-07
3.9592131e-07
3.9592209e-07
3.9591144e-07
3.9591927e-07
3.959195e-07
3.9592044e-07
3.9592007e-07
3.9985425e-07
3.9538324e-07
3.9591144e-07
3.9598777e-07
4.2734611e-07
3.9985425e-07
3.8778692e-07
3.9592225e-07
3.9592225e-07
3.9592225e-07
3.9592226e-07
3.9592226e-07
3.9592225e-07
3.9592224e-07
3.9592224e-07
3.9592222e-07
3.9592222e-07
3.9592222e-07
3.9592209e-07
3.9592224e-07
3.9592224e-07
3.9592224e-07
3.9592224e-07
3.9592224e-07
3.9592224e-07
3.9592224e-07
3.9592224e-07
3.9592224e-07
3.9592224e-07
3.9592224e-07
3.9592219e-07
3.9592224e-07
3.9592224e-07
3.9592225e-07
3.9592226e-07
3.9592226e-07
3.9592226e-07
3.9592226e-07
3.9592226e-07
3.9592226e-07
3.9592226e-07
3.9592226e-07
3.9592226e-07
3.9592226e-07
3.9592226e-07
3.9592226e-07
3.9592226e-07
3.9592226e-07
3.9592225e-07
3.9592225e-07
3.9592225e-07
3.9592225e-07
3.9592225e-07
3.9592225e-07
3.9592225e-07
3.9592225e-07
3.9592225e-07
3.9592226e-07
3.9592226e-07
3.9592226e-07
3.9592226e-07
3.9592226e-07
3.9592226e-07
3.9592226e-07
3.9592226e-07
3.9592226e-07
)
;
    }
}


// ************************************************************************* //
