/*--------------------------------*- C++ -*----------------------------------*\
| =========                 |                                                 |
| \\      /  F ield         | OpenFOAM: The Open Source CFD Toolbox           |
|  \\    /   O peration     | Version:  2206                                  |
|   \\  /    A nd           | Website:  www.openfoam.com                      |
|    \\/     M anipulation  |                                                 |
\*---------------------------------------------------------------------------*/
FoamFile
{
    version     2.0;
    format      ascii;
    arch        "LSB;label=32;scalar=64";
    class       volScalarField;
    location    "0.02";
    object      p;
}
// * * * * * * * * * * * * * * * * * * * * * * * * * * * * * * * * * * * * * //

dimensions      [1 -1 -2 0 0 0 0];

internalField   nonuniform List<scalar> 
1396
(
1
1
1
1
1
1
1
1
1
1
1
1
1
1
1
1
1
1
1
1
1
1
1
1
1
1
1
1
1
1
1
1
1
1
1
1
1
1
1
1
1
1
1
1
1
1
1
1
1
0.99999998
0.99999986
0.99999921
0.99999543
0.99997861
0.99989483
0.99954307
1
1
1
1
1
1
1
1
0.99999998
0.99999985
0.99999906
0.99999545
0.99997506
0.99987209
1
1
1
1
1
1
1
1
1
0.99999997
0.99999984
0.99999902
0.99999443
0.99997164
1
1
1
1
1
1
1
1
1
0.99999999
0.99999997
0.9999998
0.99999891
0.99999395
1
1
1
1
1
1
1
1
1
1
0.99999999
0.99999996
0.99999978
0.99999869
1
1
1
1
1
1
1
1
1
1
1
0.99999999
0.99999995
0.99999972
1
1
1
1
1
1
1
1
1
1
1
1
0.99999999
0.99999994
1
1
1
1
1
1
1
1
1
1
1
1
1
0.99999999
1
1
1
1
1
1
1
1
1
1
1
1
1
1
1
1
1
1
1
1
1
1
1
1
1
1
1
1
1
1
1
1
1
1
1
1
1
1
1
1
1
1
1
1
1
1
1
1
1
1
1
1
1
1
1
1
1
1
1
1
1
1
1
1
1
1
1
1
1
1
1
1
1
1
1
1
1
1
1
1
1
1
1
1
1
1
1
1
1
1
1
1
1
1
1
1
1
1
1
1
1
1
1
1
1
1
1
1
1
1
1
1
1
1
1
1
1
1
1
1
1
1
1
1
1
1
1
1
1
1
1
1
1
1
1
1
1
1
1
1
1
1
1
1
1
1
1
1
1
1
1
1
1
1
1
1
1
1
1
1
1
1
1
1
1
1
1
1
1
1
1
1
1
1
1
1
1
1
1
1
1
1
1
1
1
1
1
1
1
1
1
1
1
1
1
1
1
1
1
1
1
1
1
1
1
1
1
1
1
1
1
1
1
1
1
1
1
1
1
1
1
1
1
1
1
1
1
1
1
1
1
1
1
1
0.99999999
0.99999998
0.99999995
0.99999989
0.99999978
0.99999956
0.99999919
0.99999858
0.99999752
0.99999583
0.99999352
0.99999007
1
1
1
1
1
1
0.99999999
0.99999999
0.99999998
1
1
1
1
0.88616722
0.84578203
0.80245074
0.755794
0.71069434
0.6684568
0.6353862
0.61293289
0.61367671
0.61758236
0.6216835
0.60798588
0.61046662
0.61544177
0.8715911
0.82954742
0.78514061
0.73871105
0.69459362
0.65373616
0.62309455
0.60478141
0.60827855
0.61162469
0.61321143
0.59888456
0.60169591
0.6092755
0.85881295
0.81540058
0.77031983
0.72425181
0.68078168
0.64097355
0.61248563
0.59760323
0.60275564
0.60556132
0.60453336
0.59081914
0.59403886
0.6030455
0.84863627
0.8042505
0.75862954
0.71277197
0.66968508
0.63045564
0.60353232
0.59101166
0.59693752
0.59932038
0.59629846
0.5833755
0.58675987
0.59629182
0.84135975
0.79607212
0.750026
0.70405518
0.66101103
0.62192028
0.5957621
0.58446017
0.59063772
0.59242197
0.58809926
0.57579056
0.57908532
0.58846642
0.83681015
0.79111907
0.7441726
0.6977472
0.65427406
0.61469355
0.58831978
0.5771125
0.5831315
0.5844087
0.5795406
0.56765216
0.5708819
0.57971696
0.83571212
0.78965079
0.74160601
0.69431637
0.64983626
0.60901758
0.58119115
0.56876033
0.57425492
0.57546219
0.57118492
0.55935911
0.56270326
0.57075415
0.83839015
0.79215181
0.74276193
0.69424513
0.64817761
0.60533895
0.57472023
0.5594602
0.56358094
0.5655094
0.56262581
0.55118625
0.55411195
0.56122566
0.84620408
0.79995491
0.74918934
0.69908024
0.65091383
0.6058977
0.57137825
0.55258728
0.55437267
0.55718735
0.55602016
0.54523964
0.54694697
0.55190124
0.85532463
0.80920908
0.75650304
0.70423112
0.65335713
0.60507133
0.56534058
0.53948849
0.53482285
0.5404748
0.53945634
0.53188087
0.53175089
0.53791971
0.87389156
0.82969454
0.77676808
0.72265677
0.66947447
0.61910791
0.5759491
0.54607177
0.53772649
0.54402951
0.54908884
0.55376039
0.55696584
0.56616492
0.88066397
0.83519537
0.77899586
0.72203251
0.66512194
0.61012152
0.5592745
0.52053004
0.50116513
0.51215369
0.51597788
0.53333914
0.53199105
0.59022618
0.99979177
0.99952538
0.9990685
0.99826815
0.9969508
0.99490727
0.99191158
0.98779464
0.98221534
0.97483892
0.96512277
0.95247257
0.93673878
0.9195033
0.99929833
0.99844425
0.99706445
0.99484025
0.9915152
0.98679382
0.98032781
0.97201149
0.96159912
0.94869844
0.9328515
0.91381676
0.89194952
0.87000219
0.99817883
0.99629843
0.99358864
0.98958124
0.98403124
0.97662356
0.96720937
0.95531789
0.94046939
0.92256024
0.90127559
0.87602522
0.84747211
0.81954946
0.99605431
0.99256553
0.98795128
0.98145548
0.97278142
0.9616522
0.94755533
0.9301398
0.90954892
0.88553455
0.85836285
0.8281282
0.79505561
0.76343107
0.99280086
0.98722734
0.98024269
0.97059683
0.95803506
0.94195726
0.92212595
0.89847344
0.87103708
0.84079745
0.80861286
0.77412976
0.73756025
0.70438588
0.98081536
0.97108443
0.95767775
0.94030605
0.91859694
0.89230359
0.86162484
0.82785352
0.79246098
0.75574326
0.71755471
0.67914921
0.64596648
0.97443946
0.96184252
0.94442135
0.92210917
0.89455734
0.86189781
0.82524041
0.78630703
0.74603618
0.70481647
0.66356361
0.62370132
0.59071241
0.96987305
0.95498269
0.93421518
0.90796595
0.87596358
0.83894825
0.79837756
0.75545196
0.71042111
0.66448308
0.61931923
0.5774307
0.5454566
0.95331038
0.93165479
0.90443617
0.87168399
0.83415857
0.79284827
0.74800157
0.69973257
0.64919925
0.59944446
0.55312756
0.52020121
0.95803032
0.93848088
0.91440491
0.88626431
0.85457402
0.81863701
0.77743242
0.73433026
0.68633344
0.62905527
0.57277579
0.53291916
0.96717648
0.95138824
0.93177171
0.90851444
0.88168043
0.8521486
0.82200357
0.79015188
0.75647837
0.72118301
0.65417241
0.58384116
0.96482998
0.94917018
0.93077379
0.91127054
0.89092318
0.86794244
0.84220838
0.81968618
0.80571061
0.77917709
0.7001637
0.97734031
0.96584257
0.95233682
0.93828198
0.92380178
0.90603554
0.88579703
0.86610545
0.84473374
0.82669277
0.79187945
0.98957085
0.98282571
0.97439022
0.96484229
0.9531509
0.93537265
0.90323739
0.85746542
0.84138205
0.83826865
0.84152172
0.71508699
0.83423356
0.86485984
0.889398
0.92468807
0.94874401
0.96449402
0.97542103
0.98351917
0.98971391
0.52699013
0.88028927
0.88092295
0.89210121
0.9263595
0.9504436
0.96633163
0.97736804
0.98533797
0.99114675
0.43442976
0.89294448
0.86958635
0.89280559
0.92800951
0.95233038
0.96826594
0.97929572
0.98707082
0.992544
0.75092169
0.92032578
0.87335319
0.89451629
0.92981818
0.95426687
0.97028778
0.98124128
0.98877376
0.99393779
0.99745064
1.1181377
0.84777046
0.86444845
0.89796963
0.93202647
0.95629245
0.97241792
0.98323087
0.99047288
0.99533156
0.99852619
0.76594344
0.82109166
0.88019599
0.90135736
0.93390072
0.95849571
0.97466578
0.98526402
0.99217183
0.99671217
0.99960932
0.47897936
0.90217099
0.88745962
0.90196639
0.93582247
0.96079429
0.97699246
0.98734527
0.99386925
0.99808006
1.0006901
0.66691868
0.92961358
0.88090617
0.90343023
0.93828313
0.96318578
0.97935299
0.98947188
0.99557777
0.99943502
1.0017624
0.9413152
0.89908915
0.87909825
0.90640535
0.94093736
0.96564114
0.98168508
0.99160623
0.99728301
1.0007567
1.002804
0.90113238
0.87319231
0.88346835
0.90921237
0.94325114
0.96801371
0.98389006
0.9936452
0.99892779
1.0020017
1.0037792
0.74075574
0.88184428
0.88608879
0.91111612
0.94536182
0.97021986
0.98590378
0.99551162
1.0004991
1.0031935
1.0046979
0.76008593
0.90409195
0.88689404
0.91285878
0.94771315
0.97256616
0.98799506
0.99743229
1.0022085
1.0045534
1.0057174
0.86671975
0.91381757
0.88797926
0.91635934
0.95143789
0.97586334
0.99086291
0.99997998
1.0044416
1.0063719
1.0070267
0.90325547
0.90614241
0.89242454
0.92163446
0.95649443
0.98030986
0.99462642
1.0031389
1.0069772
1.0083187
1.008328
1.2279539
1.0001106
1.0221306
1.0007084
1.0001676
1.0000041
1.0000001
1
1
1
1
1
1
1
1.1427502
0.98608002
1.0188372
1.0004231
1.0001761
1.0000047
1.0000002
1
1
1
1
1
1
1
1.1004209
0.97891699
1.0146361
1.0000724
1.0001639
1.0000038
1.0000004
1
1
1
1
1
1
1
1.0858611
0.97848531
1.0110011
0.99981737
1.0001348
1.000002
1.0000004
1
1
1
1
1
1
1
1.0799987
0.98095292
1.0080377
0.99969017
1.0001019
1.0000003
1.0000004
1
1
1
1
1
1
1
1.0733037
0.98415568
1.0058086
0.99966302
1.0000736
0.99999909
1.0000003
1
1
1
1
1
1
1
1.06184
0.98730315
1.0041623
0.99969323
1.0000521
0.99999858
1.0000002
1
1
1
1
1
1
1
1.0478582
0.99014274
1.0029198
0.99974798
1.0000362
0.99999855
1.0000002
1
1
1.034363
0.99261729
1.0019614
0.99980791
1.0000243
1.0229954
0.99472871
0.91623379
0.90383348
0.89280026
0.88377635
0.87711636
0.87302455
0.87195531
0.87436937
0.88098983
0.88957804
0.90448933
0.91043796
0.93988109
0.92923339
0.91969059
0.91172575
0.9056397
0.90167812
0.90032083
0.90197858
0.90701417
0.91387245
0.92508245
0.92950666
0.9590419
0.95028792
0.94214517
0.93520204
0.92971782
0.92593113
0.92429559
0.925194
0.92888219
0.93421128
0.94268287
0.94601838
0.98035828
0.97371526
0.96713893
0.96073314
0.95496127
0.95010108
0.94649198
0.94463172
0.94487375
0.94731924
0.95107377
0.95699732
0.95929259
0.98887955
0.98427973
0.97956562
0.97477171
0.9702457
0.96623308
0.96305531
0.96114953
0.96081786
0.96213241
0.96448665
0.96842425
0.96983113
0.99556768
0.99430002
0.99138301
0.98820204
0.98479561
0.98141662
0.97825829
0.97561076
0.9738319
0.97317912
0.97371842
0.97505328
0.97755254
0.97823809
0.9981476
0.99742361
0.99576693
0.99380768
0.99156485
0.98919887
0.98686305
0.98478717
0.98326085
0.98249636
0.98255981
0.98320837
0.98468394
0.98487558
0.9993519
0.99900409
0.99818451
0.99711972
0.99579238
0.99428198
0.99268892
0.99118076
0.98997703
0.98924784
0.98905812
0.98928281
0.99003767
0.98996298
0.99982091
0.99968658
0.99934721
0.99884396
0.99815811
0.99730678
0.9963332
0.99534192
0.99448226
0.99388226
0.99360128
0.99359055
0.99388751
0.99367746
0.99996057
0.99992091
0.99981265
0.99961957
0.99931547
0.99889507
0.99837568
0.99780165
0.99725717
0.99682768
0.99656143
0.99645058
0.99649276
0.99624791
0.9999913
0.99998093
0.99995545
0.9999009
0.99979481
0.99962169
0.99937887
0.9990868
0.99878649
0.99851982
0.99831966
0.99819367
0.99812743
0.99790474
0.99999803
0.99999534
0.99998923
0.99997657
0.99995012
0.99989666
0.99980473
0.99967667
0.99952871
0.99938431
0.99925842
0.99915831
0.99907043
0.99889886
0.99999956
0.99999889
0.99999739
0.99999426
0.99998787
0.99997525
0.99995038
0.99990654
0.99984455
0.999774
0.99970445
0.99963932
0.99956743
0.99945116
0.99999991
0.99999975
0.9999994
0.99999864
0.99999707
0.99999396
0.99998804
0.99997739
0.99995879
0.99993152
0.99989965
0.99986527
0.99982088
0.99975537
1
1
1
1
1
1
1
1
1
1
1
1
1
1
1
1
1
1
1
1
1
1
1
1
1
1
1
1
1
1
1
1
1
1
1
1
1
1
1
1
1
1
1
1
1
1
1
1
1
1
1
1
1
1
1
1
1.5324395
1.0393392
1.0221113
1.0008499
1.0000557
1.0000007
1
1
1
1
1
1
1
1
1.4559025
1.0324983
1.0147116
1.0004912
1.0000244
1.0000002
1
1
1
1
1
1
1
1
1.3837114
1.0242419
1.0102067
1.0002954
1.0000122
1.0000001
1
1
1
1
1
1
1
1
1.3229352
1.0186323
1.0072726
1.0001872
1.0000067
1.0000001
1
1
1
1
1
1
1
1
1
1
1
1
1
1
1
1
1
1
1
1
1
1
1
1
1
1
1
1
1
1
1
1
1
1
1
1
1
1
1
1
1
1
1
1
1
1
1
1
1
1
1
1
1
1
1
1
1
1
1
1
1
1
1
1
1
1
1
1
1
1
1
1
1
1
1
1
1
1
1
1
)
;

boundaryField
{
    Side
    {
        type            empty;
    }
    Inlet
    {
        type            inletOutlet;
        inletValue      uniform 1;
        value           nonuniform List<scalar> 7(1 1 1 1 1 1 1);
    }
    Airfoil
    {
        type            zeroGradient;
    }
    Outlet
    {
        type            zeroGradient;
    }
    Flap
    {
        type            zeroGradient;
    }
    procBoundary4to3
    {
        type            processor;
        value           nonuniform List<scalar> 
142
(
1
1
1
1
1
1
1
0.99999999
0.99999997
0.99999984
0.99999914
0.99999561
0.99997965
0.99989485
0.99960765
0.99869364
0.99869364
1
1
1
1
1
1
1
1
1
1
1
1
1
1
1
1
1
1
1
1
1
0.99999995
1
1
1
1
1
1
1
1
1
1
1
1
1
1
1
1
1
1
1
0.99999999
1
1
1
1
0.90174257
0.86327148
0.82126784
0.7745881
0.72841196
0.68463546
0.6493193
0.62279022
0.62093758
0.62379672
0.62947506
0.61783178
0.6206218
0.62220622
0.92919725
0.9509789
0.96790523
0.96790523
0.98301215
0.99077889
0.99077889
1
1
1
1
1
1
1
1
1
1
1
1
1
1
1
1
1
1
1
1
1
1
1
1
1
1
1.2734518
1.0146856
1.005334
1.0001244
1.000004
1
1
1
1
1
1
1
1
1
1
1
1
1
1
1
1
1
1
1
1
1
1
1
1
1
1
1
)
;
    }
    procBoundary4to5
    {
        type            processor;
        value           nonuniform List<scalar> 
189
(
1
1
1
1
1
1
1
1
1
1
1
1
1
1
1
1
1
1
1
1
1
1
1
1
1
1
1
1
1
1
1
1
1
1
1
1
1
1
1
1
1
1
1
1
1
1
1
1
1
1
1
1
1
1
1
1
1
1
1
1
0.99999997
0.99999994
0.99999988
0.99998601
0.99999979
0.99998601
1
1
1
1
0.99999997
1
1
1
1
1
1
0.99998848
0.99995855
0.99988146
0.99971205
0.98874579
0.99941134
0.98874579
0.98467879
0.98177635
0.96894317
0.96894317
0.97232087
0.97869261
0.97703059
0.97703059
0.98597043
0.99415231
0.99432622
0.99432622
0.99535695
0.99639034
0.99639034
0.99947263
1.000252
1.0010459
1.0018405
1.002629
1.0034021
1.0041429
1.0048621
1.0056337
1.0064931
1.0072085
1.0144969
1
1
1
1
1
1
1
0.99999876
1.0000001
1
1
1
1.0012547
0.99986314
0.99999876
1.0000156
1.0144969
1.0012547
0.99646052
1
1
1
1
1
1
1
1
1
1
1
1
1
1
1
1
1
1
1
1
1
1
1
1
1
1
1
1
1
1
1
1
1
1
1
1
1
1
1
1
1
1
1
1
1
1
1
1
1
1
1
1
1
1
1
1
1
1
1
)
;
    }
}


// ************************************************************************* //
