/*--------------------------------*- C++ -*----------------------------------*\
| =========                 |                                                 |
| \\      /  F ield         | OpenFOAM: The Open Source CFD Toolbox           |
|  \\    /   O peration     | Version:  2206                                  |
|   \\  /    A nd           | Website:  www.openfoam.com                      |
|    \\/     M anipulation  |                                                 |
\*---------------------------------------------------------------------------*/
FoamFile
{
    version     2.0;
    format      ascii;
    arch        "LSB;label=32;scalar=64";
    class       surfaceScalarField;
    location    "0.02";
    object      phi;
}
// * * * * * * * * * * * * * * * * * * * * * * * * * * * * * * * * * * * * * //

dimensions      [1 0 -1 0 0 0 0];

oriented        oriented;

internalField   nonuniform List<scalar> 
2608
(
-0.0023038659
0.001792112
-0.0018358221
0.002347576
-0.0022601559
0.001792112
-0.0018358221
-0.0022164458
0.001792112
-0.0018358221
-0.0021727358
0.001792112
-0.0018358221
-0.0021290257
0.001792112
-0.0018358221
-0.0020853157
0.001792112
-0.0018358221
-0.0020416056
0.001792112
-0.0018358221
-0.0019978956
0.001792112
-0.0018358221
-0.0019541855
0.001792112
-0.0018358221
-0.0019104755
0.001792112
-0.0018358221
-0.0018667654
0.001792112
-0.0018358221
-0.0018230553
0.001792112
-0.0018358221
-0.0017793452
0.001792112
-0.001835822
0.001792112
-0.0018358219
-0.0017356346
-0.0023038659
0.001748402
0.0023475759
-0.0022601558
0.001748402
-0.0022164458
0.001748402
-0.0021727357
0.001748402
-0.0021290257
0.001748402
-0.0020853156
0.001748402
-0.0020416056
0.001748402
-0.0019978955
0.001748402
-0.0019541855
0.001748402
-0.0019104754
0.001748402
-0.0018667654
0.001748402
-0.0018230553
0.001748402
-0.0017793453
0.001748402
0.001748402
-0.0017356352
-0.0023038659
0.002347576
-0.0022601559
-0.0022164458
-0.0021727358
-0.0021290257
-0.0020853157
-0.0020416056
-0.0019978956
-0.0019541855
-0.0019104755
-0.0018667654
-0.0018230554
-0.0017793453
-0.0017356353
0.00086954867
0.001300374
-0.00094604125
0.00079305608
0.001300374
0.0007165635
0.001300374
0.00064007091
0.001300374
0.00056357833
0.001300374
0.00048708581
0.001300374
0.00041059365
0.001300374
0.00033410368
0.0013003739
0.000257628
0.0013003732
0.00018121863
0.00130037
0.00010524761
0.0013003407
3.2506853e-05
0.0013001874
-3.208093e-05
0.0012993246
0.0012957349
-8.0229655e-05
0.00086954866
0.0013768666
-0.00094604125
0.00079305609
0.0013768666
0.0007165635
0.0013768666
0.0006400709
0.0013768666
0.00056357831
0.0013768666
0.00048708575
0.0013768666
0.00041059322
0.0013768666
0.00033410108
0.0013768665
0.0002576116
0.0013768664
0.00018113545
0.0013768655
0.00010480882
0.0013768577
2.8979855e-05
0.0013768293
-4.3220304e-05
0.001376543
0.0013750422
-0.0001058385
0.00086954867
0.0014533591
-0.00094604125
0.00079305608
0.0014533591
0.0007165635
0.0014533591
0.0006400709
0.0014533592
0.00056357832
0.0014533591
0.00048708573
0.0014533591
0.00041059316
0.0014533591
0.00033410068
0.0014533591
0.00025760846
0.0014533591
0.0001811224
0.0014533588
0.00010465849
0.001453358
2.8301301e-05
0.0014533459
-4.7189068e-05
0.0014532652
0.0014528698
-0.00011864139
0.00086954867
0.0015298517
-0.00094604125
0.00079305608
0.0015298517
0.00071656349
0.0015298517
0.00064007091
0.0015298517
0.00056357832
0.0015298517
0.00048708574
0.0015298517
0.00041059315
0.0015298517
0.00033410057
0.0015298517
0.00025760814
0.0015298517
0.00018111713
0.0015298517
0.00010462765
0.0015298513
2.8173215e-05
0.0015298473
-4.8111276e-05
0.0015298312
0.0015297701
-0.00012343414
0.00086954871
0.0016063443
-0.0009460413
0.00079305612
0.0016063443
0.00071656354
0.0016063443
0.00064007095
0.0016063443
0.00056357837
0.0016063443
0.00048708577
0.0016063443
0.00041059319
0.0016063443
0.00033410061
0.0016063443
0.00025760808
0.0016063443
0.00018111562
0.0016063443
0.00010462407
0.0016063442
2.8140909e-05
0.0016063435
-4.8311464e-05
0.0016063417
0.0016063275
-0.00012462766
0.00086954867
0.0016828369
-0.00094604125
0.00079305608
0.0016828369
0.00071656349
0.0016828369
0.0006400709
0.0016828369
0.00056357832
0.0016828369
0.00048708573
0.0016828369
0.00041059315
0.0016828369
0.00033410057
0.0016828369
0.00025760798
0.0016828369
0.00018111541
0.0016828369
0.00010462324
0.0016828369
2.813178e-05
0.0016828368
-4.8353615e-05
0.0016828364
0.0016828336
-0.00012480919
0.00086954867
0.0017593295
-0.00094604125
0.00079305608
0.0017593295
0.00071656349
0.0017593295
0.00064007091
0.0017593295
0.00056357832
0.0017593295
0.00048708574
0.0017593295
0.00041059315
0.0017593295
0.00033410056
0.0017593295
0.00025760797
0.0017593295
0.00018111539
0.0017593295
0.00010462287
0.0017593295
2.8130483e-05
0.0017593295
-4.836072e-05
0.0017593294
0.0017593288
-0.00012484528
0.00086954867
-0.00094604125
0.00079305608
0.00071656349
0.00064007091
0.00056357832
0.00048708573
0.00041059315
0.00033410056
0.00025760797
0.00018111539
0.00010462281
2.8130282e-05
-4.8362007e-05
-0.00012485282
0.014095084
-0.0016000151
-0.014062302
0.014127867
-0.001600015
0.014160649
-0.001600015
0.014193432
-0.0016000151
-0.001600015
0.014095084
-0.0016327975
-0.014062302
0.014127867
-0.0016327976
0.01416065
-0.0016327975
0.014193432
-0.0016327975
0.014226215
-0.0016327976
0.014258997
-0.0016327975
-0.0016327976
0.014095084
-0.0016655802
-0.014062302
0.014127867
-0.0016655801
0.01416065
-0.0016655802
0.014193432
-0.0016655801
0.014226215
-0.0016655801
0.014258997
-0.0016655801
0.01429178
-0.0016655802
0.014324562
-0.0016655801
-0.0016655802
0.014095084
-0.0016983626
-0.014062302
0.014127867
-0.0016983627
0.014160649
-0.0016983626
0.014193432
-0.0016983627
0.014226214
-0.0016983626
0.014258997
-0.0016983627
0.01429178
-0.0016983626
0.014324562
-0.0016983627
0.014357345
-0.0016983626
0.014390127
-0.0016983627
-0.0016983627
0.014095084
-0.014062302
0.014127867
-0.0017311451
0.01416065
-0.0017311452
0.014193432
-0.0017311452
0.014226215
-0.0017311451
0.014258997
-0.0017311452
0.01429178
-0.0017311451
0.014324562
-0.0017311452
0.014357345
-0.0017311451
0.014390127
-0.0017311452
0.01442291
-0.0017311452
-0.0017311451
0.014127867
0.01416065
0.014193432
-0.0017639277
0.014226215
-0.0017639278
0.014258997
-0.0017639276
0.01429178
-0.0017639278
0.014324562
-0.0017639278
0.014357345
-0.0017639277
0.014390127
-0.0017639278
0.01442291
-0.0017639278
0.014455692
-0.0017639277
0.014488475
-0.0017639277
-0.0017639278
0.014193432
0.014226215
-0.0017967103
0.014258997
-0.0017967102
0.01429178
-0.0017967103
0.014324562
-0.0017967103
0.014357345
-0.0017967102
0.014390127
-0.0017967103
0.01442291
-0.0017967102
0.014455692
-0.0017967103
0.014488475
-0.0017967102
-0.0017967103
0.014521257
0.014226214
0.014258997
0.01429178
-0.0018294928
0.014324562
-0.0018294928
0.014357345
-0.0018294928
0.014390127
-0.0018294928
0.01442291
-0.0018294928
0.014455692
-0.0018294928
0.014488475
-0.0018294928
-0.0018294928
0.014521257
0.01429178
0.014324562
0.014357345
-0.0018622753
0.014390127
-0.0018622753
0.01442291
-0.0018622753
0.014455692
-0.0018622753
0.014488475
-0.0018622753
-0.0018622753
0.014521257
0.014357345
0.014390127
0.01442291
-0.0018950579
0.014455692
-0.0018950578
0.014488475
-0.0018950579
-0.0018950579
0.014521257
0.01442291
0.014455692
0.014488475
-0.0019278404
-0.0019278404
0.014521257
0.014488475
-0.0019606229
0.014521257
0.014521257
-0.014182269
-0.0019967787
-0.014302236
-0.0019967786
0.0021167458
-0.014422203
-0.0019967787
0.0021167457
-0.01454217
-0.0019967786
0.0021167458
-0.014662137
-0.0019967787
0.0021167457
-0.014782104
-0.0019967786
0.0021167458
-0.014902071
-0.0019967786
0.0021167457
-0.015022038
-0.0019967787
0.0021167457
-0.015142006
0.0021167458
0.0021167457
-0.014182269
-0.0018768116
-0.014302236
-0.0018768115
-0.014422203
-0.0018768116
-0.01454217
-0.0018768116
-0.014662137
-0.0018768115
-0.014782104
-0.0018768116
-0.014902071
-0.014182269
-0.0017568444
-0.014302236
-0.0017568445
-0.014422203
-0.0017568444
-0.01454217
-0.0017568446
-0.014662137
-0.014182269
-0.0016368774
-0.014302236
-0.0016368774
-0.014422203
-0.014182269
-0.00070117691
0.014398825
-0.00057874469
0.014398825
-0.00045631248
0.014398825
-0.00033388031
0.014398825
-0.00021144814
0.014398825
-8.901589e-05
0.014398825
0.014398825
-0.00070117688
0.014276393
-0.00057874469
0.014276393
-0.00045631253
0.014276393
-0.00033388031
0.014276393
-0.00021144814
0.014276393
-8.9016019e-05
0.014276393
0.014276393
-0.00070117686
0.014153961
-0.00057874469
0.014153961
-0.00045631248
0.014153961
-0.00033388031
0.014153961
-0.0002114481
0.014153961
-8.901589e-05
0.014153961
0.014153961
-0.00070117692
0.014031529
-0.0005787447
0.014031529
-0.00045631253
0.014031529
-0.00033388031
0.014031529
-0.00021144814
0.014031529
-8.9015975e-05
0.014031529
0.014031529
-0.00082360904
0.013909096
-0.00070117686
0.013909096
-0.00057874469
0.013909096
-0.00045631248
0.013909096
-0.00033388031
0.013909096
-0.00021144814
0.013909096
-8.901589e-05
0.013909096
-0.00082360908
0.013786664
-0.00070117687
0.013786664
-0.00057874469
0.013786664
-0.00045631253
0.013786664
-0.00033388031
0.013786664
-0.00021144809
0.013786664
0.013786664
-0.00082360908
0.013664232
-0.00070117691
0.013664232
-0.00057874469
0.013664232
-0.00045631248
0.013664232
-0.00033388031
0.013664232
-0.00021144814
0.013664232
0.013664232
-0.00082360908
0.0135418
-0.00070117687
0.0135418
-0.00057874466
0.0135418
-0.00045631253
0.0135418
-0.00033388031
0.0135418
-0.00021144814
0.0135418
0.0135418
-0.00082360904
0.013419368
-0.00070117686
0.013419368
-0.00057874469
0.013419368
-0.00045631248
0.013419368
-0.00033388031
0.013419368
-0.00021144814
0.013419368
-0.00082360908
0.013296935
-0.00070117692
0.013296936
-0.00057874469
0.013296935
-0.00045631253
0.013296936
-0.00033388036
0.013296935
0.013296935
-0.00082360908
0.013174503
-0.00070117686
0.013174503
-0.00057874469
0.013174503
-0.00045631248
0.013174503
-0.00033388031
0.013174503
0.013174503
-0.00082360908
0.013052071
-0.00070117687
0.013052071
-0.0005787447
0.013052071
-0.00045631253
0.013052071
-0.00033388031
0.013052071
0.013052071
-0.00082360904
0.012929639
-0.00070117691
0.012929639
-0.00057874469
0.012929639
-0.00045631248
0.012929639
-0.00033388031
0.012929639
0.012929639
-0.00082360908
0.012807207
-0.00070117687
0.012807207
-0.00057874469
0.012807207
-0.00045631253
0.012807207
-0.00033388031
0.012807207
0.012854027
0.0023007553
0.012900848
0.0023007553
0.0023007553
0.012854027
0.0022539348
0.012900848
0.0022539347
0.012854027
0.0022071141
0.0021602935
-0.001674086
0.0032478668
-0.0033094039
-0.0016125351
0.0032478665
-0.0033093794
-0.0015509789
0.0032478659
-0.0033093296
-0.0014894131
0.0032478646
-0.0033092169
-0.0014278375
0.0032478621
-0.0033089578
-0.001366239
0.0032478597
-0.0033082938
-0.0013044629
0.0032478535
-0.0033063903
-0.0012422908
0.0032478001
-0.0033023297
-0.0011796863
0.0032476754
-0.0032968192
-0.0011167517
-0.0032902895
-0.0010535795
-0.0032833038
-0.00099003319
-0.0032763248
-0.0032686659
-0.0016740888
0.0031863205
-0.0016125422
0.0031863204
-0.0015509956
0.0031863204
-0.0014894489
0.0031863204
-0.0014279019
-0.0013663547
-0.0013048064
-0.0012432567
-0.0016740888
-0.0016125423
-0.0015509958
0.00038956139
0.00084417808
0.00018596564
0.00097018338
0.00076710981
0.001396462
0.0007014094
0.0016998549
0.00064178506
0.0018654075
0.00059017688
0.0018604878
0.00055135659
0.0015608171
0.00052891562
0.00076531868
0.0005414385
-0.00040931721
0.00062434697
-0.00091858731
0.00069310252
-0.00055128811
0.00069288297
2.8869818e-05
0.00068144109
0.00032567303
0.00064769363
0.00056010716
0.00065210166
0.00080179642
-7.6813907e-05
0.0011828224
0.00072488355
0.0015595674
0.00065925465
0.0018152678
0.00060173435
0.001941803
0.00055214203
0.0018616197
0.00051677744
0.0015046747
0.00050075498
0.00059773194
0.00052175551
-0.00053169214
0.00062194994
-0.00085801862
0.00067617947
-0.00043694739
0.00066767535
5.621817e-05
0.0006563856
0.0002961764
0.00062677863
0.00053928385
0.00087141247
0.00076727441
-0.00032663674
0.0013568433
0.00069077401
0.0016941834
0.00062515246
0.0019167602
0.00056894034
0.0020117811
0.00052049665
0.0018676349
0.00048756437
0.0014537471
0.00047708679
0.00045428005
0.00050548841
-0.00061313006
0.00062071334
-0.00078368008
0.00066251839
-0.00033888294
0.00064706641
7.7075134e-05
0.00063661293
0.00027466184
0.00060987133
0.00052317031
0.0010455221
0.00074181813
-0.00052192864
0.0014933779
0.00066539516
0.0018003618
0.00059948696
0.0019997855
0.00054360374
0.0020724774
0.00049554147
0.0018865037
0.00046390433
0.0014198782
0.00045745605
0.00035441601
0.00049190257
-0.00066019471
0.000620027
-0.00072026308
0.00065199227
-0.00027116303
0.00063168092
8.7110551e-05
0.00062177224
0.00026041882
0.0005961256
0.00051005115
0.0011746288
0.0007273405
-0.00066246642
0.0015922451
0.00065008618
0.0018778759
0.0005829901
0.0020611017
0.00052634115
0.0021183583
0.00047768072
0.0019073795
0.00044602754
0.001402387
0.00044140891
0.0002931686
0.000480321
-0.00068349497
0.00061931921
-0.00067373168
0.00064528274
-0.00023079092
0.00062133344
9.0584892e-05
0.00061138944
0.00025289952
0.00058460675
0.00049840877
0.0012596663
0.00072499811
-0.00075256944
0.0016617222
0.00064604058
0.0019342363
0.0005764136
0.00210804
0.00051775161
0.0021579385
0.00046718374
0.0019366502
0.00043378069
0.0014126669
0.00042839833
0.00027729853
0.0004685095
-0.00068818687
0.0006170235
-0.0006487298
0.00064413605
-0.00021139341
0.00061687608
9.7204813e-05
0.00060563156
0.0002583578
0.00057574259
0.00048877952
0.0013041044
0.00073475991
-0.00078952492
0.0017031541
0.00065284676
0.0019736781
0.00057941937
0.0021478039
0.00051738715
0.0022020699
0.00046345087
0.0019903213
0.00042614961
0.0014732856
0.00041681665
0.00032514539
0.00045273412
-0.00067686174
0.00060706873
-0.00065900639
0.00064850592
-0.00021740133
0.00061756073
0.00011407629
0.00060332797
0.00028088923
0.00056850212
0.00048133888
0.001310125
0.00075666457
-0.00077338206
0.0017183113
0.0006710458
0.0019977402
0.00059285664
0.0021821606
0.00052650278
0.0022583454
0.00046831011
0.0020802289
0.00042580279
0.0015998481
0.00041041808
0.00047367871
0.0004410721
-0.00061951723
0.00059766158
-0.00070152662
0.00066062715
-0.0002566269
0.00063287841
0.00012346045
0.00061031891
0.00031573224
0.00056825143
0.00047877398
0.0012438425
0.00079835948
-0.00067241549
0.0016754591
0.00070717663
0.0019776731
0.00062033308
0.0021804021
0.00054579634
0.002279501
0.00047995195
0.002165623
0.00042886826
0.0017088894
0.00040102652
0.00061459451
0.00041427017
-0.0005767063
0.0005439827
-0.0008025622
0.00066648464
-0.00036582032
0.00063124996
0.0001368306
0.00060104694
0.00035518227
0.00054567375
0.00045744122
0.0011630955
0.00085459332
-0.00054565762
0.0016264649
0.00075736542
0.0019597193
0.00066116887
0.0021882282
0.00057886997
0.0023118056
0.00050639861
0.0022792336
0.00044808892
0.0019315253
0.00041158112
0.0010498387
0.0004146746
-0.0002523375
0.00052732922
-0.00079913401
0.00069219632
-0.00040470673
0.00066647061
0.00016273707
0.00063016464
0.00039720877
0.00056931401
0.00047300118
0.0008840692
0.00093298081
-0.00023246258
0.00140811
0.00082827068
0.0018079968
0.00071407109
0.0020783134
0.00061430612
0.002233679
0.0005253149
0.0022435976
0.00045183475
0.0019585694
0.00039895254
0.0011697784
0.00038309711
-0.00023740285
0.00044415907
-0.0010257536
0.00067407334
-0.00078051629
0.00065471812
-0.00010818617
0.00054626749
0.00028202995
0.00044250974
0.00023802604
0.00087524587
0.0010164147
-0.00011827428
0.0014466844
0.00091725776
0.0018836829
0.00079861073
0.0021778435
0.00068491282
0.0023674894
0.00058541992
0.0024551243
0.00049983943
0.0022889803
0.00043016013
0.0016718861
0.00039145236
0.00024980175
0.00039855888
-0.00087049742
0.00059229911
-0.00069631197
0.00066530364
-3.9685701e-05
0.00044757556
0.00026004104
0.00031966889
0.00047166746
-0.001819931
-7.2312931e-05
5.3147774e-05
-0.0017796537
-5.8051184e-05
4.4703286e-05
-0.0017342248
-4.0075363e-05
3.3325961e-05
-0.0016833483
-1.6681364e-05
1.759348e-05
-0.0016266121
1.1663649e-05
-3.3686327e-06
-0.0015632913
4.5570286e-05
-2.9737484e-05
-0.0014944056
8.5382803e-05
-6.3548252e-05
-0.0014210302
0.00013226455
-0.0001054834
-0.0013456454
0.00018715544
-0.00015561222
-0.0012711397
0.00025128544
-0.00021284883
-0.0012005398
0.00032072015
-0.00027498699
-0.001134571
0.00039235289
-0.00033879077
-0.0010727058
0.00046226313
-0.00039941094
0.00052264186
-0.00045006288
-0.0017845734
-7.6953623e-05
-0.0017275746
-5.0287041e-05
-0.0016652029
-1.9611088e-05
-0.0015982586
1.8914046e-05
-0.001529597
6.3090747e-05
-0.0014609502
0.00011276349
-0.0013931678
0.00016685189
-0.0013249256
0.00022488897
-0.0012551495
0.00028681699
-0.0011845683
0.00035321389
-0.0011150232
0.00042542756
-0.0010464647
0.00049651316
-0.000980112
0.00056288714
0.00061611274
-0.001734526
-7.0179849e-05
-0.0016651916
-3.0121206e-05
-0.001593149
1.2775628e-05
-0.0015185363
6.2380405e-05
-0.0014430907
0.00011843463
-0.0013680095
0.00018084828
-0.0012926812
0.00024932176
-0.0012164211
0.00032344774
-0.0011403342
0.00040071802
-0.0010666122
0.00047415771
-0.00099594544
0.00054379781
-0.00092792009
0.00060884778
-0.00086091536
0.00066513696
0.00070406563
-0.0016648593
-5.3334319e-05
-0.0015837166
2.3917452e-06
-0.001502772
5.6539323e-05
-0.0014206008
0.00011958508
-0.0013384261
0.00018878582
-0.001254928
0.00026439088
-0.0011696346
0.00034707479
-0.0010862132
0.00043100152
-0.0010064036
0.00051069466
-0.00093260729
0.00058367424
-0.00086419738
0.00064880369
-0.00079890223
0.00070410024
-0.00073830682
0.00074384047
0.00076568582
-0.0015837672
-0.0014925315
3.6167036e-05
-0.0014028
0.00010311238
-0.0013110975
0.00018008517
-0.0012171404
0.00026340212
-0.0011209494
0.00035397509
-0.0010283357
0.00044503028
-0.00094234035
0.0005313224
-0.00086526295
0.0006094587
-0.00079568274
0.00067770733
-0.00073135027
0.0007342834
-0.00067551755
0.00077495981
-0.00062814672
0.00079854438
0.00080666107
-0.0013974313
6.0743058e-05
-0.0012958439
0.00013951111
-0.0011895693
0.00022977024
-0.0010800733
0.00032654533
-0.00097518231
0.0004252558
-0.00087980131
0.00051994743
-0.00079696728
0.00060629671
-0.0007251918
0.00068179817
-0.0006609019
0.00074448029
-0.00060732201
0.00079032387
-0.00056651186
0.00081928916
-0.00053267109
0.00083111468
0.00082928154
-0.001306599
5.6187672e-05
-0.0011887457
0.00014235464
-0.0010633183
0.00024044062
-0.00094286816
0.00034223721
-0.00083311158
0.00044436665
-0.00073824285
0.00054100345
-0.00065890681
0.00062836424
-0.00059177924
0.00070448919
-0.00053717203
0.00076518859
-0.00049792592
0.00080813919
-0.00047181052
0.00083432652
-0.00045162912
0.00083910994
0.00081949634
-0.0012379796
-0.0011013273
5.7672331e-05
-0.00095988832
0.00014105902
-0.0008298251
0.00022709832
-0.00071453151
0.00032025997
-0.00061751159
0.00041962367
-0.0005381754
0.00052146376
-0.00047502482
0.00061157045
-0.00043014042
0.00068887336
-0.00040369506
0.00074713795
-0.00039453534
0.00077788893
-0.00039566278
0.00077328576
0.0007374331
-0.0010909602
-0.00018159213
-0.00094303493
-0.0001841171
-0.00080248752
-0.00018802429
-0.00067139507
-0.00017156264
-0.0005546284
-0.00011323811
-0.00045940691
-6.8797385e-06
-0.00039231655
0.00014554179
-0.00035252895
0.00032233013
-0.00033584577
0.00049772496
-0.00034235609
0.0006057924
-0.00036237888
0.00060455338
0.00051349948
-0.0012961652
-0.00049843073
-0.0012075685
-0.00060884843
-0.0011037345
-0.00070772391
-0.00096714259
-0.00075911355
-0.00079713323
-0.00076014848
-0.0006140694
-0.00070698217
-0.00045510529
-0.00056553874
-0.00034270207
-0.00039682165
-0.00029512704
-0.00021697106
-0.00035435661
-5.036974e-05
-0.00048064345
0.00011807591
0.00015177902
-0.0015966895
-0.0015739069
-0.00081774198
-0.0015082964
-0.00091789823
-0.0013837597
-0.00096226508
-0.0012044361
-0.00095962474
-0.00098417625
-0.00092192641
-0.00074975103
-0.00086111805
-0.00055689609
-0.00079706043
-0.00044556877
-0.00074166564
-0.00050306737
-0.00064096294
-0.0006125495
-0.00037359092
-0.00014320641
-0.0017974439
-0.00083226879
-0.001772835
-0.00092297436
-0.00168777
-0.00097508328
-0.0015372141
-0.00097085792
-0.0013147576
-0.00090215338
-0.0010348338
-0.00077367561
-0.00075477029
-0.00062906729
-0.000526354
-0.00052413413
-0.00037347539
-0.00049125237
-0.00036977743
-0.00040251301
-0.00019893278
-0.0019229994
-0.00079274137
-0.0019190296
-0.00087759529
-0.0018649307
-0.00092844754
-0.0017424316
-0.00092291269
-0.0015350323
-0.00085908053
-0.0012600876
-0.0007542552
-0.00098904947
-0.00060471641
-0.00072729487
-0.00046678599
-0.00046525044
-0.00041124977
-0.0002635397
-0.00033262261
-4.975319e-05
-0.0019847243
-0.0019773506
-0.00080242997
-0.0019211945
-0.00085421568
-0.0018056609
-0.00085806301
-0.0016459959
-0.00082445373
-0.001451691
-0.00076540137
-0.0012131153
-0.00061826813
-0.0010095224
-0.00037878174
-0.00095143372
-0.0003310589
-0.00092069927
-0.00069648561
-0.00065108176
4.6084648e-05
-0.00051676259
5.928883e-05
-0.00075746616
8.1359303e-05
-0.00030705692
0.00010805838
-0.00036697295
0.00012443054
-0.00063667257
0.00014435581
-0.0007842567
0.00017026203
-0.00083628366
0.00019808103
-0.00086657243
0.00022400188
-0.0008617484
-0.00081061203
4.503026e-05
-0.0014390651
6.5031909e-05
-0.00047077399
9.2994648e-05
-9.0102909e-05
0.00011948821
-0.00037048177
0.00012683256
-0.00066229541
0.0001451163
-0.00080213201
0.0001708219
-0.00084800436
0.00019805924
-0.00087453786
0.00022396834
-0.0008682465
-0.00081920251
7.6989902e-05
-0.0013978083
7.4042418e-05
-0.00025075401
0.00011349096
-0.00010873541
0.00013648193
-0.00043222936
0.0001290301
-0.00068597134
0.00014630759
-0.00081703097
0.00017147602
-0.00085998646
0.00019810375
-0.00088293586
0.00022387068
-0.00087482282
-0.00082731116
5.8974006e-05
-0.00076960171
9.3278428e-05
0.00022281244
0.00016535924
-0.00022231357
0.00015800597
-0.00049379597
0.00013001201
-0.00070442005
0.00014748019
-0.00083036306
0.00017224685
-0.00087184014
0.00019818617
-0.00089178436
0.00022370974
-0.00088175559
0.00024688002
-0.00083526919
-0.00076578341
0.00013811561
0.00061619039
0.00016251781
-0.00023490311
0.0002303976
-0.00051008918
0.00017098679
-0.00048745121
0.00012913585
-0.00071952263
0.00014872014
-0.00084316717
0.00017309943
-0.00088352473
0.0001983827
-0.00090107795
0.00022354176
-0.0008889822
0.00024687444
-0.00084295607
-0.00077566413
0.00013947975
-0.00035462766
0.00024540812
-0.00083464792
0.00025752332
-0.00045541223
0.0001644427
-0.00042215242
0.00012766233
-0.00074801882
0.0001499576
-0.0008550623
0.00017403722
-0.00089499211
0.00019870552
-0.00091089764
0.00022340396
-0.00089665279
0.00024676833
-0.00085066667
-0.00078533104
0.00023854816
-0.0014420899
0.00025876239
-0.00054313635
0.00024582391
-0.0001523409
0.00014733371
-0.00043627131
0.00012749652
-0.00078487603
0.00015115259
-0.00086696117
0.00017505351
-0.00090646271
0.00019919228
-0.00092147802
0.00022337386
-0.00090525012
0.0002466345
-0.00085873134
-0.00079489504
0.00017103451
-0.0010529553
0.00026626
1.0066964e-05
0.00022784688
-2.0774617e-05
0.00012998653
-0.00055961262
0.00012826886
-0.00080719076
0.00015233064
-0.00087880038
0.0001761304
-0.00091826423
0.00019987596
-0.0009328777
0.00022352731
-0.00091503571
0.00024652662
-0.00086740838
-0.00080441451
0.00020567705
0.00023496449
0.00025427996
0.00038539583
0.00018063372
-0.00022790222
0.00011268526
-0.0006802915
0.0001292321
-0.00081819067
0.00015350037
-0.00089023793
0.00017723372
-0.00093051607
0.00020070944
-0.00094475857
0.00022386183
-0.00092575034
0.00024646377
-0.00087674735
-0.00081397598
0.00018893693
0.00086104294
0.00020714079
3.7758265e-06
0.00011401201
-0.00052136129
0.00010571105
-0.0007203206
0.00013032581
-0.00083028375
0.00015465284
-0.00090238009
0.00017830624
-0.00094304138
0.00020158036
-0.00095656166
0.00022431186
-0.00093678499
0.00024645307
-0.00088664333
-0.00082371507
0.0001212785
3.0863157e-05
8.6845927e-05
-0.00049112943
8.2527948e-05
-0.00059173552
0.00010659555
-0.00072852071
0.00013139143
-0.00084317539
0.00015573961
-0.00091501393
0.00017929754
-0.00095565263
0.00020238064
-0.00096801312
0.00022480179
-0.00094754629
0.00024651377
-0.00089689309
-0.00083388602
5.2628011e-05
-0.00069432138
6.2337666e-05
-0.00050722628
8.3016354e-05
-0.00058540325
0.00010742853
-0.00074764595
0.00013234065
-0.00085684844
0.00015679416
-0.00092734444
0.00018021684
-0.00096842834
0.00020307165
-0.00097941604
0.00022526892
-0.00095800119
0.00024666527
-0.00090735936
-0.00084477383
3.4158707e-05
-0.0004857197
6.1287978e-05
-0.00039131471
8.3484925e-05
-0.00061255979
0.00010821024
-0.00076455736
0.0001333179
-0.00086804146
0.00015784953
-0.00094027268
0.00018110651
-0.00098177762
0.00020369868
-0.00099129688
0.00022568487
-0.00096865592
0.00024686497
-0.00091807592
-0.00085654766
3.8842433e-05
-0.00030362591
6.1073176e-05
-0.000446992
8.4015697e-05
-0.00063480754
0.00010896231
-0.00077653014
0.00013424824
-0.00087981057
0.00015885095
-0.00095472977
0.00018194206
-0.00099705436
0.00020426538
-0.0010053336
0.00022599855
-0.00098133265
0.00024698422
-0.00093010472
-0.00012110362
0.0098219789
-0.009942532
-0.00024707915
0.00733608
-0.0072703918
-0.00057556423
0.0083344699
-0.0083334388
-0.00055659246
0.0082230694
-0.0082615571
-0.00052620152
0.0082467044
-0.0082876798
-0.00048538903
0.0082467893
-0.0082879701
-0.00044423583
0.0082468516
-0.0082880201
-0.00040306925
0.008246854
-0.0082880208
-0.00036190252
0.0082468542
-0.0082880209
-0.00032073574
0.008246854
-0.0082880208
-0.000279569
0.008246854
-0.0082880208
-0.00023840222
0.008246854
-0.0082880208
-0.00019723544
0.0082468541
-0.0082880209
0.0082468541
-0.00015606871
-0.0082880208
-0.0002357244
0.0099419235
-0.00029409239
0.0074335043
-0.00058184744
0.0083248537
-0.00055658972
0.0081841642
-0.00052617947
0.0082057873
-0.0004853743
0.00820561
-0.00044423529
0.0082056844
-0.00040306929
0.0082056872
-0.00036190252
0.0082056874
-0.00032073574
0.0082056873
-0.000279569
0.0082056873
-0.00023840222
0.0082056873
-0.00019723549
0.0082056874
0.0082056873
-0.00015606866
-0.00036221317
0.010134029
-0.00035697378
0.0075299891
-0.00058988772
0.008304295
-0.00055707801
0.0081455354
-0.00052621275
0.0081649981
-0.00048536076
0.0081644371
-0.00044423471
0.0081645183
-0.00040306926
0.0081645204
-0.00036190252
0.0081645206
-0.00032073574
0.0081645205
-0.00027956896
0.0081645205
-0.00023840222
0.0081645205
-0.00019723544
0.0081645206
0.0081645205
-0.00015606871
-0.00047048363
0.01020352
-0.00042241009
0.0076004476
-0.00059796295
0.0082718408
-0.00055808437
0.0081064333
-0.00052630406
0.0081241475
-0.00048535047
0.0081232706
-0.00044423454
0.008123353
-0.00040306918
0.0081233536
-0.00036190247
0.0081233538
-0.00032073578
0.0081233538
-0.000279569
0.0081233538
-0.00023840222
0.0081233538
-0.00019723544
0.0081233538
0.0081233538
-0.00015606866
-0.00055338824
0.010097262
-0.00047971842
0.0076396387
-0.00060483155
0.008225052
-0.00055966411
0.0080673318
-0.00052641907
0.0080831655
-0.000485349
0.0080821089
-0.00044423476
0.0080821877
-0.00040306919
0.0080821869
-0.00036190252
0.0080821871
-0.00032073574
0.008082187
-0.00027956896
0.008082187
-0.00023840222
0.008082187
-0.00019723544
0.0080821871
0.008082187
-0.00015606871
-0.00061620866
0.0098801287
-0.00052596362
0.0076566734
-0.00060987695
0.0081715967
-0.00056150007
0.0080282905
-0.00052652483
0.0080420475
-0.00048535661
0.0080409497
-0.00044423527
0.0080410222
-0.00040306918
0.0080410201
-0.00036190252
0.0080410203
-0.00032073574
0.0080410202
-0.000279569
0.0080410202
-0.00023840222
0.0080410202
-0.00019723549
0.0080410203
0.0080410202
-0.00066187761
0.0095778104
-0.00056238296
0.0076609832
-0.0006131022
0.0081145987
-0.00056324181
0.0079891482
-0.00052659923
0.0080008325
-0.00048536599
0.0079997915
-0.00044423573
0.007999856
-0.00040306914
0.0079998533
-0.00036190252
0.0079998535
-0.00032073574
-0.000279569
-0.00023840222
-0.00019723544
-0.00069180635
0.0092449329
-0.00059010381
0.0076605546
-0.00061467426
0.0080554761
-0.00056455388
0.0079498038
-0.00052664142
0.0079595598
-0.00048537485
-0.0004442361
-0.00040306921
-0.00070806162
0.0089353163
-0.00060721472
0.0076596249
-0.00061503372
-0.00056545434
-0.00071475134
0.00079973492
0.00067118379
0.00083144213
0.00040904994
0.00084463557
0.00018160432
0.00084006082
7.4087363e-06
0.00082144457
-0.00014141579
0.00079103252
-0.00024141797
0.00075075672
-0.00028862667
0.00069827474
-0.00027930909
0.00063824643
-0.0001915166
0.00056286739
-6.6736734e-05
0.00049495019
0.00018281642
0.00029149835
0.00065619257
0.0011853365
0.00069435057
0.00092498267
0.00071618713
0.00069910168
0.00072210722
0.00051340845
0.00071432793
0.00036926643
0.00069408921
0.00026636433
0.00066277701
0.00020883957
0.00061868653
0.00020215452
0.00056693391
0.00026194595
0.00049661815
0.00036002696
0.00044129326
0.00058175699
0.00066492085
0.0005128244
0.0016795041
0.00055831719
0.0014319378
0.00058773526
0.0012074995
0.00060205835
0.0010157687
0.00060274954
0.00086579466
0.00059051776
0.00075592577
0.00056612905
0.00069046168
0.00052895146
0.00067571145
0.00048445242
0.00072458609
0.00042401742
0.00081603957
0.00037962939
0.0010015259
0.0010550165
0.00031753666
0.0023345104
0.00037558409
0.0021092508
0.00042546043
0.0018868188
0.00046104176
0.00168287
0.0004826564
0.0015052976
0.00049106287
0.0013575495
0.00048651334
0.0012433645
0.00046930904
0.0011706881
0.00043948961
0.0011467459
0.00040178882
0.0011787957
0.0003511442
0.0012458429
0.00031507475
0.0013921499
0.0014231493
0.00019120947
0.0026736556
0.00024921312
0.0024752766
0.00029905579
0.0022835848
0.0003377014
0.0021020586
0.00036463616
0.0019387391
0.00037980257
0.0017980625
0.00038272902
0.0016848542
0.0003730888
0.001607755
0.00035116319
0.0015739014
0.00032109758
0.0015892211
0.00028061235
0.0016360841
0.00025227435
0.0017480726
0.0017615922
4.6244002e-05
0.0029985564
8.6087326e-05
0.0029349052
0.00013892394
0.0027745102
0.00018532443
0.0026171242
0.0002240771
0.0024615873
0.00025383125
0.0023164668
0.00027381035
0.0021864587
0.00028293624
0.0020776253
0.00028046447
0.001998877
0.00026667484
0.0019572908