/*--------------------------------*- C++ -*----------------------------------*\
| =========                 |                                                 |
| \\      /  F ield         | OpenFOAM: The Open Source CFD Toolbox           |
|  \\    /   O peration     | Version:  2206                                  |
|   \\  /    A nd           | Website:  www.openfoam.com                      |
|    \\/     M anipulation  |                                                 |
\*---------------------------------------------------------------------------*/
FoamFile
{
    version     2.0;
    format      ascii;
    arch        "LSB;label=32;scalar=64";
    class       volScalarField;
    location    "0.02";
    object      rho;
}
// * * * * * * * * * * * * * * * * * * * * * * * * * * * * * * * * * * * * * //

dimensions      [1 -3 0 0 0 0 0];

internalField   nonuniform List<scalar> 
1396
(
0.99999904
0.99999904
0.99999904
0.99999904
0.99999904
0.99999904
0.99999904
0.99999904
0.99999904
0.99999904
0.99999904
0.99999904
0.99999904
0.99999904
0.99999904
0.99999904
0.99999904
0.99999904
0.99999904
0.99999904
0.99999904
0.99999904
0.99999904
0.99999904
0.99999904
0.99999904
0.99999904
0.99999904
0.99999904
0.99999904
0.99999904
0.99999904
0.99999904
0.99999904
0.99999904
0.99999904
0.99999904
0.99999904
0.99999904
0.99999904
0.99999904
0.99999904
0.99999904
0.99999904
0.99999904
0.99999904
0.99999904
0.99999904
0.99999904
0.99999903
0.99999898
0.99999871
0.99999707
0.99999023
0.99996157
0.99984962
0.99999904
0.99999904
0.99999904
0.99999904
0.99999904
0.99999904
0.99999904
0.99999904
0.99999903
0.99999897
0.9999986
0.99999729
0.99998994
0.99994838
0.99999904
0.99999904
0.99999904
0.99999904
0.99999904
0.99999904
0.99999904
0.99999904
0.99999904
0.99999903
0.99999897
0.99999868
0.99999683
0.99998819
0.99999904
0.99999904
0.99999904
0.99999904
0.99999904
0.99999904
0.99999904
0.99999904
0.99999904
0.99999904
0.99999903
0.99999896
0.99999864
0.99999681
0.99999904
0.99999904
0.99999904
0.99999904
0.99999904
0.99999904
0.99999904
0.99999904
0.99999904
0.99999904
0.99999904
0.99999903
0.99999897
0.99999856
0.99999904
0.99999904
0.99999904
0.99999904
0.99999904
0.99999904
0.99999904
0.99999904
0.99999904
0.99999904
0.99999904
0.99999904
0.99999903
0.99999894
0.99999904
0.99999904
0.99999904
0.99999904
0.99999904
0.99999904
0.99999904
0.99999904
0.99999904
0.99999904
0.99999904
0.99999904
0.99999904
0.99999902
0.99999904
0.99999904
0.99999904
0.99999904
0.99999904
0.99999904
0.99999904
0.99999904
0.99999904
0.99999904
0.99999904
0.99999904
0.99999904
0.99999904
0.99999904
0.99999904
0.99999904
0.99999904
0.99999904
0.99999904
0.99999904
0.99999904
0.99999904
0.99999904
0.99999904
0.99999904
0.99999904
0.99999904
0.99999904
0.99999904
0.99999904
0.99999904
0.99999904
0.99999904
0.99999904
0.99999904
0.99999904
0.99999904
0.99999904
0.99999904
0.99999904
0.99999904
0.99999904
0.99999904
0.99999904
0.99999904
0.99999904
0.99999904
0.99999904
0.99999904
0.99999904
0.99999904
0.99999904
0.99999904
0.99999904
0.99999904
0.99999904
0.99999904
0.99999904
0.99999904
0.99999904
0.99999904
0.99999904
0.99999904
0.99999904
0.99999904
0.99999904
0.99999904
0.99999904
0.99999904
0.99999904
0.99999904
0.99999904
0.99999904
0.99999904
0.99999904
0.99999904
0.99999904
0.99999904
0.99999904
0.99999904
0.99999904
0.99999904
0.99999904
0.99999904
0.99999904
0.99999904
0.99999904
0.99999904
0.99999904
0.99999904
0.99999904
0.99999904
0.99999904
0.99999904
0.99999904
0.99999904
0.99999904
0.99999904
0.99999904
0.99999904
0.99999904
0.99999904
0.99999904
0.99999904
0.99999904
0.99999904
0.99999904
0.99999904
0.99999904
0.99999904
0.99999904
0.99999904
0.99999904
0.99999904
0.99999904
0.99999904
0.99999904
0.99999904
0.99999904
0.99999904
0.99999904
0.99999904
0.99999904
0.99999904
0.99999904
0.99999904
0.99999904
0.99999904
0.99999904
0.99999904
0.99999904
0.99999904
0.99999904
0.99999904
0.99999904
0.99999904
0.99999904
0.99999904
0.99999904
0.99999904
0.99999904
0.99999904
0.99999904
0.99999904
0.99999904
0.99999904
0.99999904
0.99999904
0.99999904
0.99999904
0.99999904
0.99999904
0.99999904
0.99999904
0.99999904
0.99999904
0.99999904
0.99999904
0.99999904
0.99999904
0.99999904
0.99999904
0.99999904
0.99999904
0.99999904
0.99999904
0.99999904
0.99999904
0.99999904
0.99999904
0.99999904
0.99999904
0.99999904
0.99999904
0.99999904
0.99999904
0.99999904
0.99999904
0.99999904
0.99999904
0.99999904
0.99999904
0.99999904
0.99999904
0.99999904
0.99999904
0.99999904
0.99999904
0.99999904
0.99999904
0.99999904
0.99999904
0.99999904
0.99999904
0.99999904
0.99999904
0.99999904
0.99999904
0.99999904
0.99999904
0.99999904
0.99999904
0.99999904
0.99999904
0.99999904
0.99999904
0.99999904
0.99999904
0.99999904
0.99999904
0.99999904
0.99999904
0.99999904
0.99999904
0.99999904
0.99999904
0.99999904
0.99999904
0.99999904
0.99999904
0.99999904
0.99999904
0.99999904
0.99999904
0.99999904
0.99999904
0.99999904
0.99999904
0.99999904
0.99999904
0.99999904
0.99999904
0.99999904
0.99999904
0.99999904
0.99999904
0.99999904
0.99999904
0.99999904
0.99999904
0.99999904
0.99999904
0.99999904
0.99999904
0.99999904
0.99999904
0.99999904
0.99999904
0.99999903
0.99999902
0.99999899
0.99999894
0.99999884
0.99999867
0.99999838
0.99999784
0.99999699
0.99999605
0.99999485
0.99999904
0.99999904
0.99999904
0.99999904
0.99999904
0.99999904
0.99999904
0.99999904
0.99999903
0.99999904
0.99999904
0.99999904
0.99999904
0.98219383
0.95221987
0.9157539
0.87539213
0.83460292
0.79431751
0.75867047
0.72810389
0.70515654
0.6811136
0.69877329
0.73277161
0.72714473
0.66921455
0.97373183
0.94084235
0.90271904
0.86200883
0.8213466
0.78220999
0.74776939
0.71775005
0.69548752
0.67591544
0.69736201
0.72909497
0.72126793
0.65990183
0.96603314
0.93106726
0.8919086
0.85104306
0.81036875
0.77233302
0.7388297
0.70837054
0.68669554
0.67124424
0.69505242
0.72434064
0.71577182
0.65208787
0.96015615
0.92383909
0.88397013
0.84295202
0.80236642
0.7647989
0.73200809
0.70044604
0.67947593
0.66699621
0.69219466
0.71930871
0.71058892
0.64496775
0.95633359
0.91894896
0.87864165
0.83723777
0.79658148
0.75903223
0.72648031
0.69360777
0.6729897
0.66212487
0.68811752
0.71377881
0.70453532
0.63719763
0.95442402
0.91655741
0.87549727
0.8335196
0.79244696
0.75434178
0.72139108
0.68704727
0.66609164
0.65539847
0.68167155
0.70746664
0.69742527
0.62859254
0.9553185
0.91716308
0.87537031
0.83259029
0.79067492
0.75151095
0.7174993
0.68137054
0.65930258
0.64693769
0.67273827
0.70106656
0.69058895
0.62059712
0.95930222
0.92122036
0.87862126
0.83490473
0.79171297
0.75099579
0.71527373
0.67727233
0.65315016
0.63769192
0.66057916
0.69430803
0.68372694
0.61324947
0.96773801
0.93046514
0.88743583
0.84277978
0.79787392
0.7553797
0.71688357
0.67898802
0.65083785
0.63060386
0.65050048
0.68976258
0.67923307
0.60809893
0.97544792
0.93895236
0.89459804
0.84826013
0.80101246
0.75579443
0.71388045
0.67306552
0.63811338
0.61561945
0.62502753
0.66944866
0.6589037
0.59379173
0.99087414
0.9597964
0.91781412
0.87174291
0.82363696
0.77615828
0.73184597
0.69287669
0.6561635
0.62683497
0.63705481
0.69226535
0.69037952
0.62943553
0.99172393
0.95907366
0.91160117
0.86110755
0.80891678
0.75792237
0.70869834
0.65980721
0.60869356
0.58087935
0.57130507
0.62959126
0.6077889
0.59371734
0.99994794
0.99990533
0.99986288
0.99986221
0.99995113
1.000259
1.0011962
1.0031956
1.0062153
1.0102032
1.0150488
1.0203903
1.0241969
1.0229596
0.99983566
0.9997191
0.99972545
1.0000079
1.0008548
1.0025516
1.0051761
1.0086283
1.0122513
1.0152144
1.0170837
1.0171083
1.0122709
0.99984611
0.9997824
0.99991953
1.0005896
1.0020965
1.0047079
1.0083505
1.0125662
1.0160095
1.0170086
1.0149906
1.0105107
1.0029967
0.98912555
0.96622814
1.0001765
1.0012632
1.0035268
1.0070884
1.0115967
1.0160795
1.0186801
1.0175179
1.0123175
1.0036232
0.99199316
0.97566421
0.9502664
0.91914408
1.0017551
1.004816
1.0094326
1.0149415
1.0198153
1.021659
1.0184934
1.0100512
0.99719623
0.98101669
0.96075559
0.93338853
0.90057297
0.86595178
1.0108791
1.0175877
1.023392
1.0254624
1.0213713
1.0104067
0.99383797
0.97308741
0.947967
0.91674139
0.88310244
0.8472389
0.81091501
1.018257
1.0257465
1.0296515
1.0268511
1.015754
0.99699451
0.97226511
0.94245752
0.90690556
0.86909073
0.83246734
0.79370214
0.75621751
1.0248692
1.0318585
1.0329247
1.0255111
1.0087642
0.98351989
0.95119055
0.91284735
0.86985669
0.82763123
0.78644457
0.7437248
0.70539184
1.034498
1.0336336
1.0238708
1.0048505
0.97714381
0.94114231
0.89832339
0.8524037
0.80455164
0.7557929
0.70274537
0.65838285
1.0319336
1.0296233
1.0191032
1.0008143
0.97591346
0.94431711
0.90557917
0.86374736
0.81646709
0.75601467
0.68908573
0.63246463
1.0239605
1.0193596
1.0065235
0.98644515
0.96167941
0.935336
0.90953493
0.88079846
0.84548108
0.79677687
0.70836624
0.6394217
1.0085858
0.99534632
0.97708566
0.95862557
0.94225273
0.92448731
0.90359037
0.88889852
0.87978699
0.84231594
0.76055371
1.0035382
0.99367392
0.97888989
0.95942339
0.93230237
0.89541738
0.86387497
0.86417189
0.90539227
0.955683
0.92853229
1.0005669
0.99187455
0.97283049
0.93884085
0.89049617
0.83556135
0.7778772
0.72004236
0.69494934
0.73713569
0.85297526
0.48622091
0.61912472
0.68273886
0.75481427
0.8136282
0.84788168
0.87989286
0.92011308
0.95894052
0.98387022
0.43680324
0.63775014
0.69407016
0.75922421
0.81791051
0.85180725
0.88067101
0.91727437
0.95488296
0.98117728
1.3225647
0.65706718
0.69215474
0.76336775
0.8225552
0.8558009
0.88213151
0.91525653
0.95090612
0.97798485
0.58135787
0.65670281
0.69718545
0.76753145
0.82688934
0.86012034
0.88451801
0.91400853
0.9472837
0.97467831
0.9904028
1.0615616
0.63693931
0.69690821
0.77264643
0.83109028
0.86435485
0.88752683
0.91385838
0.94437367
0.97124861
0.98806136
0.54627867
0.6299633
0.70830701
0.77709923
0.8344824
0.86844616
0.89097899
0.91472035
0.94225651
0.96792079
0.98549951
0.99080216
0.66191164
0.71591105
0.77976264
0.83745151
0.87232996
0.894734
0.91664965
0.94114585
0.96507569
0.98292918
0.47275265
0.67449687
0.71660268
0.78274361
0.84061429
0.87618093
0.89870458
0.91954707
0.94136184
0.96300113
0.98049852
0.58327685
0.66752826
0.71880872
0.78671864
0.8440865
0.88017915
0.90281954
0.92304523
0.94274527
0.96177399
0.97826768
0.55969637
0.66164297
0.72446234
0.79067377
0.84771463
0.88431945
0.9069538
0.92656188
0.9447629
0.96129069
0.97634517
0.53848695
0.67039847
0.72898519
0.79398857
0.85150042
0.88847647
0.91098241
0.92964752
0.94685119
0.96146757
0.97497237
0.53267177
0.68472882
0.73204084
0.79697524
0.85553668
0.89271881
0.91501812
0.93243338
0.94874286
0.96224525
0.97451483
0.5341017
0.69404358
0.73500171
0.80073046
0.86030052
0.89746253
0.91947159
0.9354818
0.95068744
0.96349209
0.97501439
0.56037336
0.69753152
0.7398232
0.80547382
0.86554319
0.9026912
0.92428664
0.9388546
0.95277048
0.96472523
0.97583386
1.0933011
0.97705179
1.0125739
1.0000574
1.0000962
1.0000006
0.99999907
0.99999904
0.99999904
0.99999904
0.99999904
0.99999904
0.99999904
0.99999904
1.0548734
0.97373486
1.010675
0.99994153
1.0000866
1.0000004
0.99999915
0.99999904
0.99999904
0.99999904
0.99999904
0.99999904
0.99999904
0.99999904
1.0451499
0.97305849
1.0077535
0.99976771
1.0000738
0.99999978
0.99999921
0.99999905
0.99999904
0.99999904
0.99999904
0.99999904
0.99999904
0.99999904
1.0482823
0.97594384
1.0049121
0.99967662
1.0000561
0.99999892
0.99999923
0.99999905
0.99999904
0.99999904
0.99999904
0.99999904
0.99999904
0.99999904
1.0523224
0.98143186
1.0027628
0.99968477
1.0000375
0.9999983
0.99999921
0.99999904
0.99999904
0.99999904
0.99999904
0.99999904
0.99999904
0.99999904
1.0501382
0.98747944
1.0014193
0.99975314
1.0000235
0.99999809
0.99999916
0.99999904
0.99999904
0.99999904
0.99999904
0.99999904
0.99999904
0.99999904
1.0391879
0.99238566
1.000614
0.99983682
1.0000137
0.9999982
0.99999913
0.99999904
0.99999904
0.99999904
0.99999904
0.99999904
0.99999904
0.99999904
1.0232999
0.99600008
1.0001064
0.99990847
1.000007
0.99999843
0.9999991
0.99999904
0.99999904
1.0078521
0.99856768
0.99985394
0.99995875
1.0000029
0.99749623
1.0001817
0.99883609
0.99444399
0.98999811
0.98630966
0.98381279
0.98282035
0.98395366
0.9875491
0.99378284
1.0001486
1.008314
1.0112629
1.0057177
1.0046051
1.0031153
1.0015675
1.0003505
0.99989466
1.0007447
1.0031918
1.0067984
1.0108348
1.0139994
1.0163187
1.0067888
1.0077393
1.0082667
1.0084664
1.0085223
1.0087424
1.009469
1.0108896
1.0125143
1.0145153
1.0147397
1.0159824
1.0030165
1.0045654
1.006391
1.008022
1.0093244
1.0103061
1.0111267
1.0119464
1.0128229
1.0133466
1.0139029
1.012578
1.0127818
1.0007431
1.001775
1.0032973
1.0049432
1.0065295
1.0079464
1.0091598
1.0101228
1.0107647
1.010846
1.0106991
1.0091128
1.0088058
0.99931172
0.99965115
1.0000117
1.0007815
1.0018147
1.0030048
1.0042303
1.0053828
1.0063075
1.0068643
1.0069167
1.0066496
1.0054508
1.0051309
0.99949049
0.99947837
0.99943797
0.99960566
0.99997973
1.0005508
1.0012661
1.0020342
1.0027091
1.0031458
1.0032533
1.0030962
1.0024202
1.002303
0.99974295
0.99965217
0.99950262
0.99941572
0.99940824
0.99951759
0.99975236
1.000083
1.0004285
1.0006896
1.0008022
1.0007667
1.0004846
1.0005486
0.99991852
0.9998677
0.99973618
0.99959653
0.99948314
0.99940543
0.99937846
0.99941645
0.99950335
0.99959806
0.99966435
0.99968101
0.999612
0.99973015
0.99998212
0.99996639
0.99991752
0.99983391
0.99971763
0.999604
0.99951576
0.9994478
0.99940904
0.9994002
0.99941166
0.99942568
0.99942669
0.99951872
0.99999543
0.9999914
0.99998061
0.99995574
0.99990645
0.99983019
0.99973858
0.99966166
0.99960551
0.99956369
0.99954241
0.9995373
0.99954075
0.99958113
0.99999822
0.99999715
0.99999465
0.99998932
0.99997747
0.99995193
0.99990822
0.9998517
0.99979844
0.99976383
0.99973816
0.99972153
0.99971304
0.99971558
0.99999885
0.99999858
0.99999796
0.99999665
0.99999394
0.99998839
0.99997667
0.99995513
0.99992566
0.9998963
0.99987674
0.99985997
0.99984549
0.9998319
0.999999
0.99999894
0.9999988
0.99999849
0.99999784
0.99999652
0.99999392
0.99998901
0.99997981
0.99996636
0.99995285
0.99994156
0.99992929
0.99991556
0.99999904
0.99999904
0.99999904
0.99999904
0.99999904
0.99999904
0.99999904
0.99999904
0.99999904
0.99999904
0.99999904
0.99999904
0.99999904
0.99999904
0.99999904
0.99999904
0.99999904
0.99999904
0.99999904
0.99999904
0.99999904
0.99999904
0.99999904
0.99999904
0.99999904
0.99999904
0.99999904
0.99999904
0.99999904
0.99999904
0.99999904
0.99999904
0.99999904
0.99999904
0.99999904
0.99999904
0.99999904
0.99999904
0.99999904
0.99999904
0.99999904
0.99999904
0.99999904
0.99999904
0.99999904
0.99999904
0.99999904
0.99999904
0.99999904
0.99999904
0.99999904
0.99999904
0.99999904
0.99999904
0.99999904
0.99999904
1.3968986
1.0123505
1.0120234
1.0000897
1.0000182
0.99999927
0.99999904
0.99999904
0.99999904
0.99999904
0.99999904
0.99999904
0.99999904
0.99999904
1.3112024
1.0098358
1.0077126
1.0000492
1.0000086
0.99999911
0.99999904
0.99999904
0.99999904
0.99999904
0.99999904
0.99999904
0.99999904
0.99999904
1.2616164
1.0073152
1.0052077
1.0000324
1.0000038
0.99999908
0.99999904
0.99999904
0.99999904
0.99999904
0.99999904
0.99999904
0.99999904
0.99999904
1.2194195
1.005854
1.0036156
1.0000236
1.0000016
0.99999906
0.99999904
0.99999904
0.99999904
0.99999904
0.99999904
0.99999904
0.99999904
0.99999904
0.99999904
0.99999904
0.99999904
0.99999904
0.99999904
0.99999904
0.99999904
0.99999904
0.99999904
0.99999904
0.99999904
0.99999904
0.99999904
0.99999904
0.99999904
0.99999904
0.99999904
0.99999904
0.99999904
0.99999904
0.99999904
0.99999904
0.99999904
0.99999904
0.99999904
0.99999904
0.99999904
0.99999904
0.99999904
0.99999904
0.99999904
0.99999904
0.99999904
0.99999904
0.99999904
0.99999904
0.99999904
0.99999904
0.99999904
0.99999904
0.99999904
0.99999904
0.99999904
0.99999904
0.99999904
0.99999904
0.99999904
0.99999904
0.99999904
0.99999904
0.99999904
0.99999904
0.99999904
0.99999904
0.99999904
0.99999904
0.99999904
0.99999904
0.99999904
0.99999904
0.99999904
0.99999904
0.99999904
0.99999904
0.99999904
0.99999904
0.99999904
0.99999904
0.99999904
0.99999904
0.99999904
0.99999904
)
;

boundaryField
{
    Side
    {
        type            empty;
    }
    Inlet
    {
        type            calculated;
        value           nonuniform List<scalar> 7(0.99999904 0.99999904 0.99999904 0.99999904 0.99999904 0.99999904 0.99999904);
    }
    Airfoil
    {
        type            calculated;
        value           nonuniform List<scalar> 0();
    }
    Outlet
    {
        type            calculated;
        value           nonuniform List<scalar> 0();
    }
    Flap
    {
        type            calculated;
        value           nonuniform List<scalar> 
30
(
0.61544118
0.60927491
0.60304492
0.59629125
0.58846586
0.5797164
0.5707536
0.56122512
0.55190071
0.5379192
0.56616438
0.59022561
0.7150863
0.52698963
0.43442934
0.75092097
1.1181366
0.76594271
0.4789789
0.66691804
0.9413143
0.90113151
0.74075503
0.7600852
0.86671892
0.9032546
1.5324381
1.4559011
1.3837101
1.3229339
)
;
    }
    procBoundary4to3
    {
        type            processor;
        value           nonuniform List<scalar> 
142
(
0.99999904
0.99999904
0.99999904
0.99999904
0.99999904
0.99999904
0.99999904
0.99999904
0.99999903
0.99999897
0.99999869
0.99999723
0.99999095
0.99995457
0.99986077
0.99974197
0.99974197
0.99999904
0.99999904
0.99999904
0.99999904
0.99999904
0.99999904
0.99999904
0.99999904
0.99999904
0.99999904
0.99999904
0.99999904
0.99999904
0.99999904
0.99999904
0.99999904
0.99999904
0.99999904
0.99999904
0.99999904
0.99999904
0.99999901
0.99999904
0.99999904
0.99999904
0.99999904
0.99999904
0.99999904
0.99999904
0.99999904
0.99999904
0.99999904
0.99999904
0.99999904
0.99999904
0.99999904
0.99999904
0.99999904
0.99999904
0.99999904
0.99999904
0.99999904
0.99999905
0.99999904
0.99999904
0.99999904
0.98987173
0.96366849
0.92939334
0.88959226
0.8486698
0.80752158
0.77068489
0.7391134
0.71510896
0.68641379
0.70090684
0.73552463
0.73348895
0.67987523
1.0021777
1.0060262
1.0054624
1.0054624
1.0007695
0.99959958
0.99959958
0.99999904
0.99999904
0.99999904
0.99999904
0.99999904
0.99999904
0.99999904
0.99999904
0.99999904
0.99999904
0.99999904
0.99999904
0.99999904
0.99999904
0.99999904
0.99999904
0.99999904
0.99999904
0.99999904
0.99999904
0.99999904
0.99999904
0.99999904
0.99999904
0.99999904
0.99999904
1.1851769
1.0048645
1.0025909
1.0000179
1.0000006
0.99999905
0.99999904
0.99999904
0.99999904
0.99999904
0.99999904
0.99999904
0.99999904
0.99999904
0.99999904
0.99999904
0.99999904
0.99999904
0.99999904
0.99999904
0.99999904
0.99999904
0.99999904
0.99999904
0.99999904
0.99999904
0.99999904
0.99999904
0.99999904
0.99999904
0.99999904
0.99999904
)
;
    }
    procBoundary4to5
    {
        type            processor;
        value           nonuniform List<scalar> 
189
(
0.99999904
0.99999904
0.99999904
0.99999904
0.99999904
0.99999904
0.99999904
0.99999904
0.99999904
0.99999904
0.99999904
0.99999904
0.99999904
0.99999904
0.99999904
0.99999904
0.99999904
0.99999904
0.99999904
0.99999904
0.99999904
0.99999904
0.99999904
0.99999904
0.99999904
0.99999904
0.99999904
0.99999904
0.99999904
0.99999904
0.99999904
0.99999904
0.99999904
0.99999904
0.99999904
0.99999904
0.99999904
0.99999904
0.99999904
0.99999904
0.99999904
0.99999904
0.99999904
0.99999904
0.99999904
0.99999904
0.99999904
0.99999904
0.99999904
0.99999904
0.99999904
0.99999904
0.99999904
0.99999904
0.99999904
0.99999904
0.99999904
0.99999904
0.99999904
0.99999904
0.99999903
0.99999901
0.99999898
0.99999384
0.99999894
0.99999384
0.99999904
0.99999904
0.99999904
0.99999904
0.99999903
0.99999904
0.99999904
0.99999904
0.99999904
0.99999904
0.99999904
0.99999555
0.99998671
0.9999698
0.99995729
1.0051393
0.9999945
1.0051393
1.0100587
1.0151695
1.028536
1.028536
1.0274338
1.0216479
1.0144721
1.0144721
1.0077936
1.0032197
0.99534978
0.99534978
0.99385998
0.99228604
0.99228604
0.99670593
0.99563183
0.99433889
0.99287762
0.99128989
0.98959461
0.98785683
0.9863173
0.9854312
0.98543382
0.98596367
0.9937695
0.99999904
0.99999904
0.99999904
0.99999904
0.99999904
0.99999904
0.99999904
0.99999865
0.99999907
0.99999904
0.99999904
0.99999904
0.99978168
0.99998826
0.99999865
1.0000007
0.9937695
0.99978168
1.0009626
0.99999904
0.99999904
0.99999904
0.99999904
0.99999904
0.99999904
0.99999904
0.99999904
0.99999904
0.99999904
0.99999904
0.99999904
0.99999904
0.99999904
0.99999904
0.99999904
0.99999904
0.99999904
0.99999904
0.99999904
0.99999904
0.99999904
0.99999904
0.99999904
0.99999904
0.99999904
0.99999904
0.99999904
0.99999904
0.99999904
0.99999904
0.99999904
0.99999904
0.99999904
0.99999904
0.99999904
0.99999904
0.99999904
0.99999904
0.99999904
0.99999904
0.99999904
0.99999904
0.99999904
0.99999904
0.99999904
0.99999904
0.99999904
0.99999904
0.99999904
0.99999904
0.99999904
0.99999904
0.99999904
0.99999904
0.99999904
0.99999904
0.99999904
0.99999904
)
;
    }
}


// ************************************************************************* //
