/*--------------------------------*- C++ -*----------------------------------*\
| =========                 |                                                 |
| \\      /  F ield         | OpenFOAM: The Open Source CFD Toolbox           |
|  \\    /   O peration     | Version:  2206                                  |
|   \\  /    A nd           | Website:  www.openfoam.com                      |
|    \\/     M anipulation  |                                                 |
\*---------------------------------------------------------------------------*/
FoamFile
{
    version     2.0;
    format      ascii;
    arch        "LSB;label=32;scalar=64";
    class       volScalarField;
    location    "0.02";
    object      T;
}
// * * * * * * * * * * * * * * * * * * * * * * * * * * * * * * * * * * * * * //

dimensions      [0 0 0 1 0 0 0];

internalField   nonuniform List<scalar> 
1396
(
1
1
1
1
1
1
1
1
1
1
1
1
1
1
1
1
1
1
1
1
1
1
1
1
1
1
1
1
1
1
1
1
1
1
1
1
1
1
1
1
1
1
1
1
1
1
1
1
1
0.99999999
0.99999992
0.99999954
0.9999974
0.99998742
0.9999323
0.99969244
1
1
1
1
1
1
1
1
0.99999999
0.99999992
0.99999949
0.9999972
0.99998417
0.99992275
1
1
1
1
1
1
1
1
1
0.99999999
0.99999991
0.99999938
0.99999664
0.99998249
1
1
1
1
1
1
1
1
1
1
0.99999998
0.99999988
0.99999931
0.99999619
1
1
1
1
1
1
1
1
1
1
1
0.99999998
0.99999985
0.99999917
1
1
1
1
1
1
1
1
1
1
1
1
0.99999997
0.99999982
1
1
1
1
1
1
1
1
1
1
1
1
0.99999999
0.99999996
1
1
1
1
1
1
1
1
1
1
1
1
1
0.99999999
1
1
1
1
1
1
1
1
1
1
1
1
1
1
1
1
1
1
1
1
1
1
1
1
1
1
1
1
1
1
1
1
1
1
1
1
1
1
1
1
1
1
1
1
1
1
1
1
1
1
1
1
1
1
1
1
1
1
1
1
1
1
1
1
1
1
1
1
1
1
1
1
1
1
1
1
1
1
1
1
1
1
1
1
1
1
1
1
1
1
1
1
1
1
1
1
1
1
1
1
1
1
1
1
1
1
1
1
1
1
1
1
1
1
1
1
1
1
1
1
1
1
1
1
1
1
1
1
1
1
1
1
1
1
1
1
1
1
1
1
1
1
1
1
1
1
1
1
1
1
1
1
1
1
1
1
1
1
1
1
1
1
1
1
1
1
1
1
1
1
1
1
1
1
1
1
1
1
1
1
1
1
1
1
1
1
1
1
1
1
1
1
1
1
1
1
1
1
1
1
1
1
1
1
1
1
1
1
1
1
1
1
1
1
1
1
1
1
1
1
1
1
1
1
1
1
1
1
1
1
1
1
1
1
1
0.99999999
0.99999997
0.99999994
0.99999988
0.99999976
0.99999957
0.99999924
0.99999872
0.99999789
0.99999651
0.99999427
1
1
1
1
1
1
1
0.99999999
0.99999999
1
1
1
1
0.90223166
0.88822052
0.8762725
0.86337682
0.85153507
0.84154781
0.83749877
0.84181985
0.87026935
0.90672359
0.88967755
0.8297064
0.83953855
0.91964704
0.89510298
0.8817063
0.86974996
0.85696378
0.84567582
0.83575452
0.8332702
0.84260645
0.87460659
0.90488257
0.87932929
0.82140738
0.83421889
0.92328114
0.88900897
0.87576895
0.86367492
0.85101584
0.84008795
0.82991782
0.82899353
0.84363004
0.87776172
0.90214665
0.86976573
0.81566398
0.8299269
0.92479089
0.8838515
0.87055174
0.85820639
0.84556567
0.83463666
0.82434093
0.8244878
0.84376392
0.87852552
0.89853556
0.86145982
0.81102165
0.82573663
0.92452878
0.87977558
0.86628463
0.85361909
0.8409254
0.82980889
0.81935874
0.82006562
0.84263705
0.87763179
0.89472761
0.85464863
0.80667848
0.82193859
0.92352173
0.87676895
0.86314104
0.84999909
0.83710873
0.82563687
0.81487328
0.81553436
0.83998871
0.87545152
0.89168371
0.8501749
0.80237228
0.8185556
0.92224512
0.87479863
0.86097015
0.84719037
0.83392241
0.82187461
0.81039005
0.81002252
0.83472906
0.87100276
0.88951633
0.84904398
0.79786801
0.8148157
0.91968458
0.87395748
0.85989313
0.84537132
0.83152537
0.818702
0.80604763
0.80349613
0.82604831
0.86286499
0.88680574
0.85171515
0.79386339
0.81042794
0.91516609
0.87441358
0.85973575
0.84421724
0.82949258
0.81580961
0.80210935
0.79702998
0.81383874
0.85178226
0.8835766
0.85475668
0.79047362
0.80524119
0.90758375
0.87685236
0.8618204
0.84563378
0.83020576
0.81566334
0.80057582
0.79192537
0.80153856
0.83813058
0.87793569
0.86309129
0.79450508
0.80702292
0.9059055
0.88193918
0.86444765
0.84632316
0.82897843
0.81282636
0.797656
0.78698055
0.78812183
0.81949998
0.86789827
0.8619169
0.79992429
0.80675236
0.89947953
0.88801238
0.87083464
0.85453501
0.83849204
0.822237
0.80499133
0.7891566
0.78891157
0.82334476
0.88168603
0.90315561
0.84711886
0.87528836
0.99411886
0.99984287
0.99961906
0.99920456
0.99840477
0.99699857
0.99464868
0.99072556
0.98464712
0.97614736
0.96499195
0.95081325
0.93343853
0.91460722
0.89886483
0.99946163
0.99872384
0.99733732
0.99483144
0.99066742
0.98428141
0.9752787
0.9636955
0.94995992
0.93447997
0.91718171
0.89844505
0.88113629
0.87013526
0.99839512
0.99637766
0.99300225
0.98750995
0.97941933
0.96853487
0.95520511
0.94026383
0.92473999
0.90893388
0.8919002
0.87340707
0.8567884
0.84819376
0.99587759
0.9913124
0.98447825
0.97454655
0.96162879
0.94643309
0.93017857
0.91412538
0.89848098
0.88233684
0.86529027
0.84878321
0.83666522
0.83058832
0.9910605
0.98249471
0.97108191
0.95630727
0.93941923
0.921987
0.90538149
0.88953172
0.87348529
0.85706661
0.84164182
0.8293749
0.8189892
0.81342313
0.9702589
0.95429961
0.93578694
0.91695723
0.89937529
0.88311248
0.86696629
0.85074857
0.83595761
0.82437919
0.81253769
0.80160219
0.79658886
0.95696723
0.93769914
0.91722339
0.8979961
0.8806822
0.86449521
0.84878045
0.83431482
0.82261649
0.81098068
0.79710392
0.78581208
0.78114013
0.94633744
0.92549684
0.90443597
0.88537808
0.86835235
0.85300506
0.83934475
0.82757674
0.81670974
0.80287261
0.78749178
0.77640298
0.77326678
0.92151894
0.90133867
0.88334909
0.86747546
0.85366939
0.84243106
0.83266322
0.82089261
0.80690735
0.79313247
0.78709452
0.79011886
0.92838282
0.91147895
0.89726346
0.88554235
0.87566494
0.86690817
0.85849112
0.85016706
0.84061292
0.83206674
0.83121042
0.84260625
0.94454385
0.93331861
0.92573176
0.92099755
0.91681238
0.91106061
0.90376164
0.89708504
0.89473042
0.90512457
0.92349373
0.91307599
0.95661576
0.95360705
0.95260112
0.95060021
0.94552374
0.93883561
0.93206789
0.92213607
0.91580104
0.92504048
0.92059642
0.97389353
0.97199054
0.97287337
0.97796352
0.99088121
1.0118574
1.0253754
1.0022365
0.93300215
0.86502739
0.85282838
0.98900924
0.99087607
1.0016023
1.0276943
1.0703583
1.1194531
1.1611557
1.190853
1.2107088
1.1371961
0.98657131
1.4707025
1.3474389
1.2667494
1.1782993
1.1364984
1.118957
1.0961483
1.0601089
1.0256301
1.0059385
1.2064691
1.380303
1.2692119
1.1750157
1.1325916
1.1157955
1.0972664
1.0655123
1.031893
1.0101597
0.32847493
1.3589838
1.2563455
1.1695605
1.1282022
1.1127932
1.0976425
1.0699675
1.0380308
1.0148859
1.2916673
1.4014329
1.252683
1.1654447
1.1244761
1.1094563
1.0969667
1.0735571
1.043798
1.0197589
1.0071152
1.0532942
1.3310054
1.2404038
1.1621988
1.1214493
1.1063645
1.095648
1.0759106
1.0488136
1.0247949
1.0105903
1.4021098
1.3033948
1.2426746
1.1598988
1.1191366
1.1036894
1.0939257
1.0771195
1.0529732
1.0297446
1.0143164
0.48342537
1.3629767
1.2396216
1.1567181
1.1174636
1.1014105
1.0919352
1.0771229
1.0560194
1.0341977
1.0180684
1.4107124
1.3782313
1.22928
1.154183
1.1161864
1.099299
1.0897375
1.0760416
1.0575921
1.0378327
1.0216858
1.6138379
1.3468917
1.2229921
1.152133
1.1147394
1.0970951
1.0873537
1.0742759
1.0578489
1.0405311
1.0250804
1.6100364
1.3197321
1.2194802
1.1499199
1.1126978
1.0946415
1.0848283
1.0723992
1.0573307
1.0423493
1.0280978
1.375623
1.3154019
1.2155089
1.1475168
1.1102295
1.092003
1.0822414
1.0708474
1.0566583
1.0433971
1.0304876
1.4269298
1.3203637
1.2115351
1.1454031
1.10774
1.0894418
1.0797536
1.0697079
1.0563531
1.0439672
1.0320175
1.6227601
1.3166561
1.2081311
1.1444032
1.1059356
1.0873573
1.0776428
1.0689455
1.0565414
1.0445036
1.0328317
1.61188
1.2990689
1.2062662
1.144213
1.1050789
1.0859848
1.0761007
1.0684699
1.0568928
1.0451865
1.0332979
1.1231606
1.0235994
1.0094371
1.00065
1.0000705
1.0000026
1
1
1
1
1
1
1
1
1.0833044
1.0126772
1.0080751
1.0004806
1.0000885
1.0000034
1.0000001
1
1
1
1
1
1
1
1.0528823
1.0060197
1.0068287
1.0003038
1.0000892
1.0000031
1.0000002
1
1
1
1
1
1
1
1.035847
1.0026031
1.0060583
1.0001398
1.0000777
1.0000021
1.0000003
1
1
1
1
1
1
1
1.0262992
0.99951104
1.0052593
1.0000044
1.0000634
1.000001
1.0000002
1
1
1
1
1
1
1
1.0220585
0.99663314
1.0043821
0.9999089
1.0000491
1
1.0000002
1
1
1
1
1
1
1
1.0217969
0.99487754
1.0035452
0.99985542
1.0000374
0.99999943
1.0000001
1
1
1
1
1
1
1
1.0239982
0.99411818
1.0028122
0.99983854
1.0000283
0.99999916
1.0000001
1
1
1.0263034
0.99404013
1.0021068
0.99984819
1.0000204
1.0255622
0.99454702
0.91730057
0.90888238
0.9018193
0.89604263
0.89154718
0.88828413
0.88617432
0.88539247
0.8865005
0.889445
0.89703059
0.90029715
0.9345368
0.92497293
0.91683347
0.91029795
0.90532154
0.90177226
0.89964997
0.89910792
0.90088871
0.90407611
0.91230973
0.91458095
0.95257418
0.94298898
0.93441966
0.92734982
0.92186055
0.91790555
0.9156247
0.9152267
0.91740065
0.9208441
0.9289889
0.93113566
0.97740896
0.96928918
0.96099627
0.95308656
0.94613814
0.94040822
0.93607565
0.93347908
0.93291024
0.93484142
0.93803151
0.94510881
0.94718493
0.98814434
0.98253483
0.97634538
0.96997594
0.96395063
0.95861465
0.95431308
0.95151663
0.95058418
0.9518082
0.95427584
0.959678
0.96136464
0.99625242
0.99464606
0.99137047
0.98742943
0.98301078
0.97847557
0.97413648
0.9703864
0.96772699
0.96654357
0.96702887
0.96861144
0.97225203
0.97324355
0.99865547
0.99794321
0.99632594
0.99419878
0.991584
0.98865337
0.98561424
0.98278703
0.98060334
0.97941434
0.97937267
0.98017262
0.98230558
0.98261164
0.99960789
0.99935073
0.99868028
0.9977017
0.99638104
0.99476091
0.99293386
0.99109754
0.98955206
0.98856521
0.98826439
0.98852397
0.98955719
0.98941926
0.99990142
0.99981789
0.99960998
0.99924617
0.99867333
0.99789914
0.99695189
0.99592214
0.99497546
0.99428095
0.99393394
0.99390664
0.99427234
0.99394472
0.99997749
0.99995356
0.99989416
0.99978467
0.99959677
0.99928983
0.99885841
0.99835199
0.9978459
0.99742498
0.99714713
0.99702223
0.99706343
0.99672666
0.99999491
0.99998857
0.99997389
0.99994419
0.99988739
0.99979051
0.99963924
0.99942398
0.9991797
0.99895472
0.99877573
0.9986548
0.99858507
0.99832195
0.99999885
0.99999724
0.99999363
0.9999863
0.9999717
0.99994377
0.99989554
0.99982398
0.99972926
0.99961944
0.99951918
0.99943567
0.99935625
0.99918209
0.99999975
0.99999936
0.99999848
0.99999665
0.99999297
0.9999859
0.99997275
0.99995045
0.99991793
0.99987673
0.99982673
0.99977837
0.99972094
0.99961824
0.99999995
0.99999985
0.99999965
0.9999992
0.99999828
0.99999649
0.99999317
0.99998742
0.99997802
0.99996419
0.99994584
0.99992274
0.99989063
0.99983884
1
1
1
1
1
1
1
1
1
1
1
1
1
1
1
1
1
1
1
1
1
1
1
1
1
1
1
1
1
1
1
1
1
1
1
1
1
1
1
1
1
1
1
1
1
1
1
1
1
1
1
1
1
1
1
1
1.0970288
1.0266585
1.0099671
1.0007591
1.0000366
1.0000005
1
1
1
1
1
1
1
1
1.1103558
1.0224407
1.0069445
1.0004411
1.0000149
1.0000002
1
1
1
1
1
1
1
1
1.0967756
1.0168027
1.0049721
1.000262
1.0000074
1.0000001
1
1
1
1
1
1
1
1
1.0848883
1.012703
1.0036429
1.0001626
1.0000041
1
1
1
1
1
1
1
1
1
1
1
1
1
1
1
1
1
1
1
1
1
1
1
1
1
1
1
1
1
1
1
1
1
1
1
1
1
1
1
1
1
1
1
1
1
1
1
1
1
1
1
1
1
1
1
1
1
1
1
1
1
1
1
1
1
1
1
1
1
1
1
1
1
1
1
1
1
1
1
1
1
)
;

boundaryField
{
    Side
    {
        type            empty;
    }
    Inlet
    {
        type            inletOutlet;
        inletValue      uniform 1;
        value           nonuniform List<scalar> 7(1 1 1 1 1 1 1);
    }
    Airfoil
    {
        type            fixedValue;
        value           nonuniform List<scalar> 0();
    }
    Outlet
    {
        type            zeroGradient;
    }
    Flap
    {
        type            fixedValue;
        value           uniform 1;
    }
    procBoundary4to3
    {
        type            processor;
        value           nonuniform List<scalar> 
142
(
1
1
1
1
1
1
1
1
0.99999998
0.9999999
0.99999949
0.99999742
0.99998775
0.99993931
0.99974589
0.99895044
0.99895044
1
1
1
1
1
1
1
1
1
1
1
1
1
1
1
1
1
1
1
1
1
0.99999997
1
1
1
1
1
1
1
1
1
1
1
1
1
1
1
1
1
1
1
0.99999999
1
1
1
1
0.91096823
0.89581703
0.88365928
0.87072177
0.8582976
0.8478223
0.84252161
0.84261715
0.86831101
0.90877562
0.89808578
0.83998709
0.84612209
0.9151762
0.9271772
0.94528153
0.96264598
0.96264598
0.98225534
0.99117483
0.99117483
1
1
1
1
1
1
1
1
1
1
1
1
1
1
1
1
1
1
1
1
1
1
1
1
1
1
1.0744814
1.0097726
1.002735
1.0001056
1.0000025
1
1
1
1
1
1
1
1
1
1
1
1
1
1
1
1
1
1
1
1
1
1
1
1
1
1
1
)
;
    }
    procBoundary4to5
    {
        type            processor;
        value           nonuniform List<scalar> 
189
(
1
1
1
1
1
1
1
1
1
1
1
1
1
1
1
1
1
1
1
1
1
1
1
1
1
1
1
1
1
1
1
1
1
1
1
1
1
1
1
1
1
1
1
1
1
1
1
1
1
1
1
1
1
1
1
1
1
1
1
1
0.99999998
0.99999997
0.99999994
0.99999121
0.9999999
0.99999121
1
1
1
1
0.99999998
1
1
1
1
1
1
0.99999197
0.99997088
0.9999107
0.99975379
0.98368935
0.99941587
0.98368935
0.97487189
0.96710487
0.94205963
0.94205963
0.94635771
0.95795403
0.9630917
0.9630917
0.97834465
0.99096075
0.99897069
0.99897069
1.0015053
1.0041352
1.0041352
1.0027749
1.0046395
1.0067443
1.0090262
1.0114377
1.0139517
1.0164853
1.0188011
1.0205002
1.0213696
1.0215463
1.0208564
1
1
1
1
1
1
1
0.99999915
1.0000001
1
1
1
1.0014724
0.99987392
0.99999915
1.0000139
1.0208564
1.0014724
0.99550132
1
1
1
1
1
1
1
1
1
1
1
1
1
1
1
1
1
1
1
1
1
1
1
1
1
1
1
1
1
1
1
1
1
1
1
1
1
1
1
1
1
1
1
1
1
1
1
1
1
1
1
1
1
1
1
1
1
1
1
)
;
    }
}


// ************************************************************************* //
