/*--------------------------------*- C++ -*----------------------------------*\
| =========                 |                                                 |
| \\      /  F ield         | OpenFOAM: The Open Source CFD Toolbox           |
|  \\    /   O peration     | Version:  2206                                  |
|   \\  /    A nd           | Website:  www.openfoam.com                      |
|    \\/     M anipulation  |                                                 |
\*---------------------------------------------------------------------------*/
FoamFile
{
    version     2.0;
    format      ascii;
    arch        "LSB;label=32;scalar=64";
    class       volVectorField;
    location    "0.02";
    object      U;
}
// * * * * * * * * * * * * * * * * * * * * * * * * * * * * * * * * * * * * * //

dimensions      [0 1 -1 0 0 0 0];

internalField   nonuniform List<vector> 
1396
(
(0.85671779 0.043699275 0)
(0.85671779 0.043699275 0)
(0.85671779 0.043699275 1.0118133e-21)
(0.85671779 0.043699275 -1.0118397e-21)
(0.85671779 0.043699275 0)
(0.85671779 0.043699275 0)
(0.85671779 0.043699275 -5.0595947e-22)
(0.85671779 0.043699275 5.0597268e-22)
(0.85671779 0.043699275 -5.0598589e-22)
(0.85671779 0.043699275 5.059991e-22)
(0.85671779 0.043699275 0)
(0.85671779 0.043699275 -5.0602553e-22)
(0.85671779 0.043699272 5.0603874e-22)
(0.85671778 0.043699263 0)
(0.85671779 0.043699275 0)
(0.85671779 0.043699275 1.0367343e-21)
(0.85671779 0.043699275 -2.073524e-21)
(0.85671779 0.043699275 1.0367898e-21)
(0.85671779 0.043699275 -5.1840874e-22)
(0.85671779 0.043699275 1.0368452e-21)
(0.85671779 0.043699275 -5.1843648e-22)
(0.85671779 0.043699275 -5.1845035e-22)
(0.85671779 0.043699275 5.1846422e-22)
(0.85671779 0.043699275 5.184781e-22)
(0.85671779 0.043699275 -5.1849197e-22)
(0.85671779 0.043699275 0)
(0.85671779 0.043699275 0)
(0.85671779 0.043699275 0)
(0.85671779 0.043699275 1.0629149e-21)
(0.85671779 0.043699275 1.062943e-21)
(0.85671779 0.043699275 1.6521906e-34)
(0.85671779 0.043699275 -1.0630013e-21)
(0.85671779 0.043699275 0)
(0.85671779 0.043699275 5.3152979e-22)
(0.85671779 0.043699275 -5.3154438e-22)
(0.85671779 0.043699275 0)
(0.85671779 0.043699275 0)
(0.85671779 0.043699275 0)
(0.85671779 0.043699275 0)
(0.85671779 0.043699275 0)
(0.85671779 0.043699275 -5.3163187e-22)
(0.85671779 0.043699275 5.3164662e-22)
(0.85671779 0.043699275 -8.0642266e-22)
(0.85671779 0.043699275 8.0689114e-22)
(0.85671779 0.043699275 0)
(0.85671779 0.043699275 0)
(0.85671779 0.043699274 8.0830497e-22)
(0.85671779 0.043699265 -1.6175547e-21)
(0.85671776 0.043699212 4.0462512e-22)
(0.85671763 0.043698877 4.0486185e-22)
(0.85671683 0.043696932 0)
(0.85671302 0.043684582 4.0533518e-22)
(0.85668245 0.043628324 -4.0557341e-22)
(0.85649572 0.04326375 2.0289505e-22)
(0.85563334 0.040857489 -2.0296713e-22)
(0.85243215 0.034849873 0)
(0.85671779 0.043699275 0)
(0.85671779 0.043699275 0)
(0.85671779 0.043699275 0)
(0.85671779 0.043699275 0)
(0.85671779 0.043699275 7.6231669e-22)
(0.85671779 0.043699274 -7.6273681e-22)
(0.85671779 0.043699267 0)
(0.85671777 0.043699214 0)
(0.85671765 0.043698873 0)
(0.85671668 0.043696511 0)
(0.85670749 0.043684852 0)
(0.85668048 0.043567807 0)
(0.85639732 0.043165489 0)
(0.85495174 0.04047585 0)
(0.85671779 0.043699275 7.1978031e-22)
(0.85671779 0.043699275 -7.201537e-22)
(0.85671779 0.043699275 1.4410573e-21)
(0.85671779 0.043699275 -7.2090396e-22)
(0.85671779 0.043699275 0)
(0.85671779 0.043699275 0)
(0.85671779 0.043699274 0)
(0.85671779 0.043699268 -3.6120456e-22)
(0.85671776 0.043699182 7.2278637e-22)
(0.85671743 0.043698904 -3.6158201e-22)
(0.85671658 0.043694109 0)
(0.85670595 0.043675876 1.809796e-22)
(0.8566259 0.043585532 -1.8101636e-22)
(0.85620801 0.04293354 0)
(0.85671779 0.043699275 -6.8308485e-22)
(0.85671779 0.043699275 0)
(0.85671779 0.043699275 0)
(0.85671779 0.043699275 0)
(0.85671779 0.043699275 0)
(0.85671779 0.043699275 0)
(0.85671779 0.043699275 3.4255638e-22)
(0.85671779 0.043699273 -3.4272603e-22)
(0.85671778 0.043699265 3.4289585e-22)
(0.85671775 0.04369915 -3.4306583e-22)
(0.85671747 0.043698041 0)
(0.8567135 0.043696265 1.7170306e-22)
(0.85669647 0.04366813 -2.5760192e-22)
(0.85663882 0.043542309 8.584129e-23)
(0.85671779 0.043699275 7.9374801e-36)
(0.85671779 0.043699275 -6.5025425e-22)
(0.85671779 0.043699275 0)
(0.85671779 0.043699275 0)
(0.85671779 0.043699275 0)
(0.85671779 0.043699275 0)
(0.85671779 0.043699275 -3.2589271e-22)
(0.85671779 0.043699275 6.520925e-22)
(0.85671779 0.043699272 -1.3281407e-31)
(0.85671778 0.043699228 -6.5270753e-22)
(0.85671765 0.043699159 3.2650774e-22)
(0.85671697 0.043698354 0)
(0.85671534 0.043692014 -8.1679616e-23)
(0.85670202 0.043668263 8.1655441e-23)
(0.85671779 0.043699275 6.1988003e-22)
(0.85671779 0.043699275 0)
(0.85671779 0.043699275 -6.2043513e-22)
(0.85671779 0.043699275 6.2071339e-22)
(0.85671779 0.043699275 0)
(0.85671779 0.043699275 0)
(0.85671779 0.043699275 0)
(0.85671779 0.043699275 -3.1091445e-22)
(0.85671779 0.043699274 6.221084e-22)
(0.85671779 0.043699268 -1.8788758e-31)
(0.85671776 0.04369926 -1.5566704e-22)
(0.85671773 0.043698953 -3.4912145e-30)
(0.85671733 0.043698361 -1.5576289e-22)
(0.85671487 0.043693453 0)
(0.85671779 0.043699275 0)
(0.85671779 0.043699275 0)
(0.85671779 0.043699275 0)
(0.85671779 0.043699275 0)
(0.85671779 0.043699275 0)
(0.85671779 0.043699275 0)
(0.85671779 0.043699275 0)
(0.85671779 0.043699275 0)
(0.85671779 0.043699275 2.9725261e-22)
(0.85671779 0.043699275 -2.9738034e-22)
(0.85671779 0.043699268 0)
(0.85671778 0.043699234 1.4881807e-22)
(0.85671768 0.043699099 -1.4884161e-22)
(0.85671721 0.04369816 0)
(0.85671779 0.043699275 0)
(0.85671779 0.043699275 0)
(0.85671779 0.043699275 0)
(0.85671779 0.043699275 0)
(0.85671779 0.043699275 5.6831282e-22)
(0.85671779 0.043699275 -5.6854628e-22)
(0.85671779 0.043699275 0)
(0.85671779 0.043699275 0)
(0.85671779 0.043699275 2.8462389e-22)
(0.85671779 0.043699275 -5.7303214e-33)
(0.85671779 0.043699273 -2.848582e-22)
(0.85671779 0.04369927 1.4248775e-22)
(0.85671776 0.043699228 -1.4250933e-22)
(0.85671767 0.043699034 0)
(0.85671779 0.043699275 -8.8477873e-23)
(0.85671779 0.043699275 -2.8258278e-21)
(0.85671779 0.043699275 -8.8137015e-23)
(0.85671779 0.043699275 8.7967574e-23)
(0.85671779 0.043699275 -2.8973595e-21)
(0.85671779 0.043699275 4.0926375e-35)
(0.85671779 0.043699275 0)
(0.85671779 0.043699275 2.8983868e-21)
(0.85671779 0.043699275 -2.9804956e-21)
(0.85671779 0.043699275 0)
(0.85671779 0.043699275 -8.7327025e-23)
(0.85671779 0.043699275 8.716068e-23)
(0.85671779 0.043699275 5.7109686e-21)
(0.85671779 0.043699275 -2.8061654e-21)
(0.85671779 0.043699275 0)
(0.85671779 0.043699275 8.7357822e-23)
(0.85671779 0.043699275 -8.7191359e-23)
(0.85671779 0.043699275 -2.7848167e-21)
(0.85671779 0.043699275 2.7795303e-21)
(0.85671779 0.043699275 0)
(0.85671779 0.043699275 -8.6531787e-23)
(0.85671779 0.043699275 -2.8017875e-21)
(0.85671779 0.043699275 8.738864e-23)
(0.85671779 0.043699275 2.7038839e-21)
(0.85671779 0.043699275 8.7056107e-23)
(0.85671779 0.043699275 8.6890793e-23)
(0.85671779 0.043699275 0)
(0.85671779 0.043699275 -8.6562026e-23)
(0.85671779 0.043699275 8.6398576e-23)
(0.85671779 0.043699275 2.8457795e-21)
(0.85671779 0.043699275 -2.7543528e-21)
(0.85671779 0.043699275 8.5911908e-23)
(0.85671779 0.043699275 -2.792089e-21)
(0.85671779 0.043699275 3.8761287e-35)
(0.85671779 0.043699275 2.8684023e-21)
(0.85671779 0.043699275 -2.8629635e-21)
(0.85671779 0.043699275 8.6592286e-23)
(0.85671779 0.043699275 2.8521478e-21)
(0.85671779 0.043699275 8.6265775e-23)
(0.85671779 0.043699275 -2.8414137e-21)
(0.85671779 0.043699275 0)
(0.85671779 0.043699275 8.5780602e-23)
(0.85671779 0.043699275 2.2376509e-35)
(0.85671779 0.043699275 0)
(0.85671779 0.043699275 -2.8639666e-21)
(0.85671779 0.043699275 8.6968786e-34)
(0.85671779 0.043699275 2.7666844e-21)
(0.85671779 0.043699275 -1.7259165e-22)
(0.85671779 0.043699275 -2.8424017e-21)
(0.85671779 0.043699275 5.4162072e-21)
(0.85671779 0.043699275 -2.7459302e-21)
(0.85671779 0.043699275 8.5649688e-23)
(0.85671779 0.043699275 -1.7097932e-22)
(0.85671779 0.043699275 -8.9240925e-36)
(0.85671779 0.043699275 8.5171399e-23)
(0.85671779 0.043699275 0)
(0.85671779 0.043699275 8.485549e-23)
(0.85671779 0.043699275 0)
(0.85671779 0.043699275 1.7200278e-22)
(0.85671779 0.043699275 -8.5840055e-23)
(0.85671779 0.043699275 0)
(0.85671779 0.043699275 8.5519176e-23)
(0.85671779 0.043699275 -1.7071928e-22)
(0.85671779 0.043699275 1.7040139e-22)
(0.85671779 0.043699275 2.6363126e-21)
(0.85671779 0.043699275 -5.4326126e-21)
(0.85671779 0.043699275 2.6265492e-21)
(0.85671779 0.043699275 0)
(0.85671779 0.043699275 3.3571058e-35)
(0.85671779 0.043699275 2.7375588e-21)
(0.85671779 0.043699275 -2.73245e-21)
(0.85671779 0.043699275 -1.7046002e-22)
(0.85671779 0.043699275 1.701431e-22)
(0.85671779 0.043699275 -8.491367e-23)
(0.85671779 0.043699275 -2.7122043e-21)
(0.85671779 0.043699275 2.6225899e-21)
(0.85671779 0.043699275 -2.6177498e-21)
(0.85671779 0.043699275 2.6972155e-21)
(0.85671779 0.043699275 2.7232248e-21)
(0.85671779 0.043699275 1.6988558e-22)
(0.85671779 0.043699275 2.6283472e-21)
(0.85671779 0.043699275 -5.4162288e-21)
(0.85671779 0.043699275 2.7031149e-21)
(0.85671779 0.043699275 8.4316679e-23)
(0.85671779 0.043699275 -2.6090093e-21)
(0.85671779 0.043699275 2.6882263e-21)
(0.85671779 0.043699275 -2.7885381e-21)
(0.85671779 0.043699275 2.614707e-21)
(0.85671779 0.043699275 -2.7782764e-21)
(0.85671779 0.043699275 -8.4035576e-23)
(0.85671779 0.043699275 -8.3881514e-23)
(0.85671779 0.043699275 -8.3728022e-23)
(0.85671779 0.043699275 -2.6012078e-21)
(0.85671779 0.043699275 -2.6802028e-21)
(0.85671779 0.043699275 -4.3364713e-35)
(0.85671779 0.043699275 2.8373277e-21)
(0.85671779 0.043699275 0)
(0.85671779 0.043699275 -1.6635089e-22)
(0.85671779 0.043699265 -5.0570147e-21)
(0.85671779 0.043699275 3.2848771e-21)
(0.85671779 0.043699275 -3.4557661e-35)
(0.85671779 0.043699275 0)
(0.85671779 0.043699275 -9.8784268e-23)
(0.85671779 0.043699275 1.6750837e-21)
(0.85671779 0.043699275 -3.1451413e-21)
(0.85671779 0.043699275 1.4705738e-21)
(0.85671779 0.043699275 -1.4668811e-21)
(0.85671779 0.043699275 1.5607541e-21)
(0.85671779 0.043699275 0)
(0.85671779 0.043699275 -1.0377343e-22)
(0.85671779 0.043699275 2.069953e-22)
(0.85671779 0.043699275 0)
(0.85671779 0.043699275 1.0295047e-22)
(0.85671779 0.043699275 -1.7455435e-21)
(0.85671779 0.043699275 1.7409537e-21)
(0.85671779 0.043699275 2.042809e-22)
(0.85671779 0.043699275 -1.7318456e-21)
(0.85671779 0.043699275 -5.2022839e-21)
(0.85671779 0.043699275 3.2424037e-21)
(0.85671779 0.043699275 -1.7244964e-21)
(0.85671779 0.043699275 1.8272204e-21)
(0.85671779 0.043699275 -1.0718773e-22)
(0.85671779 0.043699275 -3.420593e-21)
(0.85671779 0.043699275 1.1341653e-22)
(0.85671779 0.043699275 2.2617438e-22)
(0.85671779 0.043699275 -1.8041562e-21)
(0.85671779 0.043699275 1.6865134e-21)
(0.85671779 0.043699275 3.8061719e-21)
(0.85671779 0.043699275 1.0917822e-34)
(0.85671779 0.04369927 1.1758937e-20)
(0.85671779 0.043699275 0)
(0.85671779 0.043699275 0)
(0.85671779 0.043699275 0)
(0.85671779 0.043699275 0)
(0.85671779 0.043699275 0)
(0.85671779 0.043699275 0)
(0.85671779 0.043699273 0)
(0.85671779 0.043699275 0)
(0.85671779 0.043699275 0)
(0.85671779 0.043699275 9.7063462e-21)
(0.85671779 0.043699275 -3.5642601e-23)
(0.85671779 0.043699275 3.3626867e-23)
(0.85671779 0.043699275 8.1475265e-21)
(0.85671779 0.043699274 1.8995613e-22)
(0.85671779 0.043699275 3.2221761e-33)
(0.85671779 0.043699275 -8.1896314e-23)
(0.85671779 0.043699275 -9.8073245e-21)
(0.85671779 0.043699275 0)
(0.85671779 0.043699275 0)
(0.85671779 0.043699275 -8.2185579e-21)
(0.85671779 0.043699275 0)
(0.85671779 0.043699275 0)
(0.85671779 0.043699275 0)
(0.85671779 0.043699275 0)
(0.85671779 0.043699275 -3.6346205e-23)
(0.85671779 0.043699275 3.4252434e-23)
(0.85671779 0.043699275 -8.290839e-21)
(0.85671779 0.043699274 -1.3699676e-20)
(0.85671779 0.043699275 1.267404e-20)
(0.85671779 0.043699275 2.0034468e-34)
(0.85671779 0.043699275 -8.3759113e-23)
(0.85671779 0.043699275 0)
(0.85671779 0.043699275 9.3973832e-21)
(0.85671779 0.043699275 8.8336647e-21)
(0.85671779 0.043699275 1.6745142e-20)
(0.85671779 0.043699275 1.3900117e-20)
(0.85671779 0.043699275 -1.2745268e-20)
(0.85671779 0.043699275 1.1767592e-20)
(0.85671779 0.043699275 0)
(0.85671779 0.043699275 0)
(0.85671779 0.043699275 -9.5290822e-21)
(0.85671779 0.043699275 -8.8999394e-21)
(0.85671779 0.043699275 -1.38878e-20)
(0.85671779 0.043699275 1.2718288e-20)
(0.85671779 0.043699275 -1.1822812e-20)
(0.85671779 0.043699275 1.0970704e-20)
(0.85671779 0.043699275 0)
(0.85671779 0.043699275 9.5885532e-21)
(0.85671779 0.043699275 0)
(0.85671779 0.043699275 1.4208115e-20)
(0.85671779 0.043699275 -1.2995133e-20)
(0.85671779 0.043699275 0)
(0.85671779 0.043699275 -5.5499402e-21)
(0.85671779 0.043699275 0)
(0.85671779 0.043699275 -4.8057023e-21)
(0.85671779 0.043699275 4.5181651e-21)
(0.85671779 0.043699275 -1.1269945e-22)
(0.85671779 0.043699275 0)
(0.85671779 0.043699275 0)
(0.85671779 0.043699275 -5.6160673e-21)
(0.85671779 0.043699275 0)
(0.85671779 0.043699275 -4.8938313e-21)
(0.85671779 0.043699275 -4.5981656e-21)
(0.85671779 0.043699275 -7.2104042e-21)
(0.85671779 0.043699275 6.681786e-21)
(0.85671779 0.043699275 0)
(0.85671779 0.043699275 -5.6837905e-21)
(0.85671779 0.043699275 0)
(0.85671779 0.043699275 -4.9838096e-21)
(0.85671779 0.043699275 7.5567416e-21)
(0.85671779 0.043699275 -6.7778669e-21)
(0.85671779 0.043699275 -6.1263753e-21)
(0.85671779 0.043699275 5.7531645e-21)
(0.85671779 0.043699275 5.2652604e-21)
(0.85671779 0.043699275 4.9976083e-21)
(0.85671779 0.043699275 1.5001514e-20)
(0.85671779 0.043699275 -1.3860956e-20)
(0.85671779 0.043699275 6.4054402e-21)
(0.85671779 0.043699275 5.9152594e-21)
(0.85671779 0.043699275 -5.4947671e-21)
(0.85671779 0.043699275 5.0117027e-21)
(0.85671779 0.043699275 1.6411509e-33)
(0.85671779 0.043699275 1.3957135e-20)
(0.85671779 0.043699275 9.9881731e-23)
(0.85671779 0.043699275 -1.1886388e-20)
(0.85671779 0.043699275 0)
(0.85671779 0.043699275 -1.0211762e-20)
(0.85671779 0.043699275 -1.5620751e-20)
(0.85671779 0.043699275 1.1067902e-22)
(0.85671779 0.043699275 -1.0125512e-22)
(0.85671779 0.043699275 6.065158e-21)
(0.85671779 0.043699275 -8.6521208e-23)
(0.85671779 0.043699275 -1.3627729e-33)
(0.85671779 0.043699275 -5.2994538e-22)
(0.85671779 0.043699275 -5.3189664e-22)
(0.85671779 0.043699275 2.0019836e-21)
(0.85671779 0.043699275 -1.1045095e-21)
(0.85671779 0.043699275 5.543741e-22)
(0.85671779 0.043699275 2.8581737e-34)
(0.85671779 0.043699275 0)
(0.85671779 0.043699275 5.7883513e-22)
(0.85671779 0.043699275 -6.0302662e-22)
(0.85671779 0.043699275 -6.3208202e-22)
(0.85671777 0.043699224 -3.180158e-22)
(0.8567177 0.043699107 -8.0588241e-22)
(0.85671757 0.043698856 -1.6340486e-22)
(0.85671728 0.043698306 -1.6569606e-22)
(0.85671672 0.043697221 8.5264356e-28)
(0.85671592 0.043695775 -6.8190405e-22)
(0.85671404 0.043692628 -3.4593974e-22)
(0.85670379 0.043675571 -1.7553424e-22)
(0.85668176 0.043636516 -3.5636385e-22)
(0.85664858 0.043578197 -3.6181147e-22)
(0.85660632 0.043504888 -3.6742712e-22)
(0.85655769 0.043418434 -4.6657868e-23)
(0.85649515 0.043303459 -3.5549059e-22)
(0.85671779 0.043699274 3.218053e-22)
(0.85671779 0.043699273 -3.2624717e-22)
(0.85671779 0.04369927 0)
(0.85671778 0.043699263 0)
(0.85671777 0.043699249 1.7017009e-22)
(0.85671776 0.043699222 -1.7265619e-22)
(0.85671773 0.043699171 0)
(0.85671766 0.043699066 0)
(0.85671754 0.043698874 -9.0285157e-23)
(0.85671779 0.043699275 6.5137233e-22)
(0.85671779 0.043699275 -3.3023658e-22)
(0.85671779 0.043699275 -1.6745795e-22)
(0.85671779 0.043699275 1.1002595e-33)
(0.69290388 -0.34777466 -2.7487415e-21)
(0.65972358 -0.42545063 -2.0486727e-23)
(0.63512613 -0.48511492 0)
(0.61370279 -0.53728415 1.9652483e-23)
(0.59663233 -0.57930244 0)
(0.5873556 -0.60456886 -1.8971349e-23)
(0.58648873 -0.60869972 2.3907635e-21)
(0.61282441 -0.55747302 -6.2162519e-23)
(0.6934947 -0.3815907 -5.0378668e-21)
(0.7891466 -0.17898325 2.5943531e-21)
(0.77600556 -0.20998669 1.9857806e-23)
(0.73750566 -0.30462391 -1.8492247e-23)
(0.71178608 -0.37622731 -1.864886e-23)
(0.67392187 -0.37778117 2.6205445e-21)
(0.67555975 -0.37870224 2.7730764e-21)
(0.64324506 -0.45280073 -2.5956231e-21)
(0.61883093 -0.51048413 2.6911212e-21)
(0.59866237 -0.55844852 -4.0125846e-23)
(0.58262739 -0.59704274 0)
(0.5746737 -0.61890642 1.9595897e-23)
(0.57772791 -0.61187876 -1.9092922e-23)
(0.6105369 -0.5505002 -2.4750884e-21)
(0.70519693 -0.3437137 2.5490349e-21)
(0.78183017 -0.18247781 2.0670888e-23)
(0.75865415 -0.2363361 -4.0334348e-23)
(0.7240259 -0.31998126 1.8967347e-23)
(0.70416907 -0.37950448 2.4545819e-21)
(0.66585257 -0.37878073 -2.6708068e-21)
(0.65887963 -0.40498436 -2.781341e-21)
(0.62748163 -0.47528566 2.619886e-21)
(0.60312261 -0.53088801 -1.7553037e-22)
(0.58356354 -0.57581838 -2.6349714e-21)
(0.567881 -0.61226413 -2.4561369e-21)
(0.56102518 -0.63102248 2.5678188e-21)
(0.56781233 -0.61587546 1.9552774e-23)
(0.60749736 -0.54161139 -2.5130869e-21)
(0.71566113 -0.31186764 2.6289038e-21)
(0.7742619 -0.19101979 -4.1988483e-23)
(0.74280814 -0.26008296 2.0382717e-23)
(0.71186629 -0.33198457 -2.4338676e-21)
(0.69567786 -0.3825462 2.4940061e-21)
(0.65821327 -0.38015791 0)
(0.64319869 -0.42564902 -5.4215123e-21)
(0.61253393 -0.49240343 1.4910813e-22)
(0.58804143 -0.54617612 2.7152952e-21)
(0.56870432 -0.58895729 2.4901873e-21)
(0.5529184 -0.62414644 -2.6071034e-21)
(0.54664734 -0.64069071 0)
(0.55659455 -0.61997761 0)
(0.60183448 -0.53506655 -1.9951211e-23)
(0.721756 -0.2898492 0)
(0.76619121 -0.20088558 -2.6706573e-21)
(0.72921672 -0.27816259 1.4515501e-23)
(0.70123425 -0.34113663 1.992059e-23)
(0.68718339 -0.38541516 2.4462695e-21)
(0.65130817 -0.38362479 0)
(0.62962642 -0.4405381 -9.1581273e-23)
(0.59925066 -0.50455471 -5.2844529e-21)
(0.57456546 -0.55681549 2.6751424e-21)
(0.5550195 -0.59849434 -3.9652249e-23)
(0.53887535 -0.63309359 0)
(0.53273576 -0.64845419 -3.8391532e-23)
(0.54458226 -0.62477573 -2.447503e-21)
(0.59450062 -0.53323269 5.057584e-23)
(0.72398655 -0.27811196 -1.7825015e-23)
(0.75863186 -0.21170009 5.4179994e-21)
(0.71833861 -0.29260795 -2.5663075e-21)
(0.69193412 -0.3497443 0)
(0.67867911 -0.3905579 3.8368083e-23)
(0.64427911 -0.39057258 0)
(0.61849782 -0.4496403 -2.7574849e-21)
(0.5878421 -0.51192867 0)
(0.56237438 -0.56391064 0)
(0.54220274 -0.60530556 2.4759257e-21)
(0.52532975 -0.64006521 -4.9589289e-21)
(0.51866009 -0.65570686 2.5569913e-21)
(0.53086956 -0.63184358 0)
(0.58427994 -0.5386777 -3.9590129e-23)
(0.72224588 -0.27764167 0)
(0.75276455 -0.2211601 -4.2099844e-23)
(0.70957779 -0.30389965 0)
(0.68292085 -0.35850201 -2.4208905e-21)
(0.66872606 -0.39937487 4.8931647e-21)
(0.63499314 -0.40074176 -2.745955e-21)
(0.60971467 -0.4527631 -5.1417284e-21)
(0.57821445 -0.51439587 2.6239796e-21)
(0.55139376 -0.56699655 -2.4251251e-21)
(0.52995806 -0.60912371 2.5081733e-21)
(0.51171985 -0.64509733 0)
(0.50345053 -0.66292679 2.2978661e-21)
(0.5143164 -0.64242269 -2.4472895e-21)
(0.56769715 -0.55425833 0)
(0.71467569 -0.28971318 0)
(0.75007721 -0.2254652 0)
(0.70373866 -0.30855068 2.4600071e-21)
(0.67347447 -0.36619349 -1.8017711e-23)
(0.65679081 -0.41179491 -1.3053985e-23)
(0.62291488 -0.41207233 -5.4535671e-21)
(0.60232771 -0.44987512 -2.5855159e-21)
(0.56936186 -0.5115098 2.4023451e-21)
(0.54048125 -0.56555378 -4.9122248e-21)
(0.51703182 -0.60934314 1.6306276e-22)
(0.49662801 -0.64744433 2.4792192e-21)
(0.48526696 -0.67070936 9.3809978e-26)
(0.49217545 -0.65611828 -3.6118376e-23)
(0.53963506 -0.58123165 0)
(0.69068277 -0.32157359 -2.467795e-21)
(0.74786943 -0.22404901 2.5342585e-21)
(0.69838096 -0.30371454 2.4998471e-21)
(0.66121197 -0.36995085 -2.3834401e-21)
(0.63988112 -0.4206457 5.2703907e-25)
(0.60791394 -0.42622733 0)
(0.60058622 -0.43803563 -7.6185034e-23)
(0.56589099 -0.50074377 2.2827492e-21)
(0.53473211 -0.55735164 -2.4342522e-21)
(0.50904021 -0.60387569 -2.1988868e-21)
(0.48663198 -0.64447039 2.2916476e-21)
(0.47207022 -0.67311242 2.1790601e-21)
(0.47460686 -0.66844515 -2.300406e-21)
(0.51533582 -0.60334644 2.2566466e-21)
(0.67037047 -0.35999362 -4.8834255e-21)
(0.75186937 -0.2206253 2.4961902e-21)
(0.70882099 -0.29019937 -3.7425017e-23)
(0.65944315 -0.37432536 2.2624421e-21)
(0.63186913 -0.44454579 -2.2997751e-21)
(0.59513822 -0.44049168 2.5592046e-21)
(0.59688237 -0.42392062 -2.3969849e-21)
(0.55902698 -0.48743172 7.2149836e-23)
(0.52316634 -0.54783385 -6.4133903e-25)
(0.4931709 -0.59789037 -3.5229322e-23)
(0.46644621 -0.64220741 -4.8341e-25)
(0.44608035 -0.67526755 -3.6485628e-25)
(0.43844675 -0.68616757 2.1255211e-21)
(0.46160275 -0.64911993 -2.2285407e-21)
(0.58051267 -0.46480794 5.5756791e-25)
(0.7364962 -0.22607248 4.5908756e-25)
(0.69129906 -0.28364373 -2.3667548e-21)
(0.62671152 -0.37389925 2.2938626e-21)
(0.5856611 -0.4525052 -3.2712522e-25)
(0.5445556 -0.44450283 -5.1974333e-25)
(0.61302864 -0.39039327 -2.178774e-21)
(0.57444754 -0.45536714 6.0193003e-23)
(0.53630587 -0.52130149 2.2935279e-21)
(0.50432719 -0.57582539 -2.0366753e-21)
(0.47667107 -0.6222975 2.1604883e-21)
(0.454527 -0.65854523 6.3320169e-23)
(0.44508587 -0.67689598 3.1178909e-23)
(0.46304787 -0.65177745 6.2708736e-23)
(0.5673151 -0.49827021 6.5311727e-23)
(0.74757813 -0.20953013 -2.2056416e-21)
(0.7394088 -0.23537846 2.3200058e-21)
(0.66173653 -0.34192831 -6.4818872e-23)
(0.61885522 -0.42490096 3.2717318e-23)
(0.51423246 -0.41941017 4.865738e-21)
(0.5932559 -0.37743241 -2.1329696e-21)
(0.55040191 -0.44445078 3.2669272e-23)
(0.50285138 -0.51525509 -3.2206501e-23)
(0.46275787 -0.57306143 3.1754244e-23)
(0.4284512 -0.62319665 -1.884374e-21)
(0.3983487 -0.66760921 1.3938064e-22)
(0.37607766 -0.70168583 1.3981988e-22)
(0.38106098 -0.69574733 1.9805145e-21)
(0.44454654 -0.60997174 -1.6602569e-23)
(0.69705528 -0.24128542 -2.2546241e-21)
(0.67172865 -0.18447242 2.2170827e-21)
(0.47680822 -0.26520814 1.3316814e-23)
(0.36423773 -0.26074802 0)
(0.072215067 -0.17329343 -3.8817891e-23)
(0.8523015 0.037487844 0)
(0.84892135 0.032026643 1.7438065e-23)
(0.84375316 0.024889399 -5.6624383e-22)
(0.83579782 0.015397914 6.0997759e-25)
(0.8254149 0.0030323345 5.8323397e-22)
(0.81164864 -0.013815946 0)
(0.79415624 -0.036553503 0)
(0.7729252 -0.066004714 0)
(0.74845276 -0.10213138 0)
(0.72168349 -0.14362518 3.2248129e-22)
(0.69390691 -0.18815097 -3.0718572e-22)
(0.66667157 -0.23320582 0)
(0.64140372 -0.27695963 0)
(0.61977765 -0.31667912 -7.5399802e-23)
(0.84383177 0.025550253 -5.386298e-22)
(0.83450504 0.011949661 -1.7075384e-23)
(0.82339942 -0.0048662362 5.5292879e-22)
(0.80929216 -0.026654905 -1.120776e-21)
(0.79286198 -0.052617862 5.6758117e-22)
(0.7746719 -0.081699627 2.8480305e-22)
(0.75503457 -0.11306428 -2.8839734e-22)
(0.73375967 -0.14651065 -2.8687578e-22)
(0.71053407 -0.18231346 2.9031196e-22)
(0.68550932 -0.22093671 2.678227e-22)
(0.65949312 -0.26245853 -2.9012184e-22)
(0.63383337 -0.30587326 0)
(0.60974711 -0.34900254 0)
(0.58759129 -0.38780757 0)
(0.82972179 0.0083939066 0)
(0.81460332 -0.012467765 -5.9963224e-22)
(0.79874497 -0.035443485 5.4057633e-22)
(0.77990623 -0.063323231 -6.7806203e-23)
(0.75905421 -0.09541007 0)
(0.73660211 -0.13142226 0)
(0.71303058 -0.17062782 0)
(0.68872587 -0.21188898 0)
(0.6639245 -0.25401139 0)
(0.63854875 -0.29649176 0)
(0.61296834 -0.33920716 0)
(0.58833524 -0.38225494 0)
(0.56538401 -0.42469354 0)
(0.54316018 -0.46270881 0)
(0.8081876 -0.015022492 -6.4331203e-23)
(0.78629676 -0.044020538 -5.191308e-22)
(0.76535425 -0.073893737 4.6032483e-22)
(0.7415976 -0.10861011 -5.2343543e-22)
(0.71664187 -0.14672384 5.3637908e-24)
(0.69078286 -0.18801103 7.2490807e-22)
(0.66465975 -0.23187576 -3.2879907e-22)
(0.6387203 -0.27746538 -6.4244073e-23)
(0.61294337 -0.32360584 -6.3799459e-23)
(0.58746494 -0.36888764 0)
(0.56283842 -0.41242703 -1.897838e-22)
(0.53979869 -0.45443934 6.880155e-23)
(0.51921591 -0.49450494 -1.8834859e-22)
(0.50001849 -0.52883492 7.0113792e-23)
(0.78005964 -0.040578781 1.8855464e-22)
(0.75118807 -0.076895435 5.6762046e-22)
(0.7254124 -0.11279834 -6.6828131e-23)
(0.69704113 -0.15366444 -5.7065919e-22)
(0.66837025 -0.19745993 1.2485154e-22)
(0.63967698 -0.24383636 -6.049598e-23)
(0.61165281 -0.29205715 6.3301388e-23)
(0.58476659 -0.3411415 1.8517892e-22)
(0.55955002 -0.38949207 -5.7514046e-23)
(0.53594823 -0.4355612 1.1977311e-22)
(0.51344629 -0.47902796 -5.5519552e-23)
(0.49303527 -0.51975106 1.8188111e-22)
(0.47691381 -0.55636126 6.3929989e-23)
(0.46259756 -0.58612667 -5.4288242e-23)
(0.71129382 -0.10468293 0)
(0.68065686 -0.14558154 6.0775455e-22)
(0.64775499 -0.19174961 -7.2713547e-22)
(0.61570853 -0.24060629 3.6489552e-22)
(0.584481 -0.29181353 2.3930301e-22)
(0.55507759 -0.34431722 -1.2478504e-22)
(0.52868569 -0.39642665 -1.2121243e-22)
(0.50562887 -0.44644038 1.2112865e-22)
(0.48472038 -0.49366917 1.0852652e-22)
(0.46534311 -0.53764873 -3.4735286e-22)
(0.44963986 -0.57696679 1.1157101e-22)
(0.4394789 -0.61052089 0)
(0.42982492 -0.63705085 1.2393393e-22)
(0.66996641 -0.1185568 -4.7115841e-22)
(0.63402738 -0.16256729 3.5659299e-22)
(0.59617543 -0.21254649 -1.1747631e-22)
(0.56043565 -0.26546538 -1.1483674e-22)
(0.52681789 -0.32086373 -1.0922916e-22)
(0.49693379 -0.37699195 3.8164757e-24)
(0.47182687 -0.43220132 -1.1191405e-22)
(0.45095223 -0.48560118 0)
(0.43296113 -0.53648543 1.0961847e-22)
(0.41814501 -0.5826083 -1.1558532e-22)
(0.40843202 -0.62184404 -2.2618316e-22)
(0.40475852 -0.65415276 0)
(0.40178181 -0.67944913 -1.6532698e-22)
(0.63298843 -0.10626145 -1.1500377e-22)
(0.59088989 -0.14862484 4.5156035e-22)
(0.54714739 -0.19796922 -9.0155709e-22)
(0.50677708 -0.25171693 1.2715761e-22)
(0.47013068 -0.3094326 5.5958564e-22)
(0.43911895 -0.36927005 -2.2427938e-22)
(0.41410876 -0.42988337 -2.123068e-22)
(0.39419929 -0.49044664 2.2642314e-22)
(0.37896344 -0.54855066 3.593039e-24)
(0.36933104 -0.60087831 -1.083103e-22)
(0.36704514 -0.64619567 5.6434011e-24)
(0.37405728 -0.6817947 0)
(0.38513441 -0.69678739 7.1042368e-24)
(0.56581568 -0.072916249 -1.1426165e-22)
(0.51525878 -0.10208076 2.2128003e-22)
(0.46784584 -0.13629768 0)
(0.4238767 -0.18028236 1.0912951e-22)
(0.38546967 -0.23883466 1.0886631e-22)
(0.35439411 -0.31369439 3.2966442e-22)
(0.33123801 -0.39096506 0)
(0.31937069 -0.46933282 5.406267e-22)
(0.31788902 -0.54340209 -1.1502849e-22)
(0.32415766 -0.60317954 1.0917235e-22)
(0.34282424 -0.64502261 0)
(0.37594688 -0.65797742 5.7955688e-23)
(0.60308486 0.085245582 -6.5231521e-22)
(0.56443754 0.12832969 2.2299546e-22)
(0.52639899 0.17943762 0)
(0.48201407 0.22229513 2.129142e-22)
(0.42604017 0.23879632 -2.2135238e-22)
(0.36033083 0.21603298 -2.0489168e-22)
(0.29799181 0.13332626 2.2500193e-22)
(0.25464742 -0.0043708735 -4.2768573e-22)
(0.23992189 -0.18796944 4.5980993e-22)
(0.26134097 -0.3645545 -1.0550746e-22)
(0.35145211 -0.4517017 -2.2959879e-22)
(0.50501468 -0.41111259 1.7548072e-22)
(0.69448377 0.2130048 0)
(0.68528619 0.29043548 4.3079649e-22)
(0.67794492 0.35429794 -4.4124555e-22)
(0.65912544 0.38909417 0)
(0.61622898 0.41019196 0)
(0.54208179 0.42536764 -2.1920103e-22)
(0.43961097 0.43458132 0)
(0.33121034 0.43908835 0)
(0.25841008 0.43193315 -1.0675775e-22)
(0.24145267 0.37050525 1.2843823e-22)
(0.38606226 0.17868584 2.2766068e-22)
(0.5641695 -6.3583335e-05 2.6762669e-22)
(0.7902847 0.29391768 -4.3986099e-22)
(0.80652021 0.34625524 0)
(0.81129146 0.3808702 4.4533439e-22)
(0.78973129 0.39348485 -2.2151882e-22)
(0.73058036 0.38645334 4.6077443e-22)
(0.62836152 0.3654341 2.3401407e-22)
(0.49037374 0.34698813 0)
(0.34485175 0.33573772 3.5405289e-22)
(0.23432868 0.31882661 -3.3992492e-22)
(0.19565362 0.25927766 0)
(0.26945335 0.079935426 9.3196565e-23)
(0.86460638 0.25004272 -8.7283812e-22)
(0.88866566 0.29362927 2.2092784e-22)
(0.90364333 0.32470698 8.8335046e-25)
(0.90224405 0.3333096 -4.5214923e-22)
(0.87635839 0.31229881 -2.3479914e-22)
(0.81141787 0.26309905 -4.8029253e-22)
(0.68528919 0.19971293 0)
(0.50177911 0.14987273 -1.1844338e-22)
(0.31712208 0.11131555 -3.5182562e-22)
(0.18278901 0.07239365 0)
(0.12301175 0.060431261 -4.3519667e-22)
(0.91572607 0.19374281 2.1881178e-22)
(0.93548638 0.23425862 -3.2734373e-24)
(0.95132146 0.26843248 0)
(0.95951246 0.28619572 -4.6886962e-22)
(0.95892329 0.28241228 2.417209e-22)
(0.95065323 0.2525479 0)
(0.92453132 0.19380757 0)
(0.84939885 0.13620896 0)
(0.73727339 0.13337793 2.9579544e-22)
(0.68368546 0.09162475 0)
(0.53875919 -0.13266003 2.4052397e-22)
(1.716811 0.13898255 -6.9440699e-21)
(1.2678069 0.34279939 0)
(1.0857403 0.028702998 0)
(1.1274872 0.0030597286 -1.5493165e-23)
(1.0463341 0.15431851 1.1837635e-23)
(0.99285425 0.23742665 1.0336285e-23)
(0.98624312 0.25349232 2.268691e-21)
(0.98136811 0.25123787 1.9828031e-21)
(0.96938601 0.23272474 0)
(0.95228365 0.19885818 1.5781675e-21)
(1.8087479 0.36400642 4.530927e-21)
(1.2513309 0.19151195 -1.3438742e-20)
(1.1706759 -0.14929643 -4.1988569e-23)
(1.2782066 -0.062260941 7.738036e-21)
(1.0711851 0.14790078 -6.1260819e-21)
(0.99327516 0.23399372 1.0268934e-23)
(0.99045779 0.24657619 -4.5649139e-21)
(0.9846963 0.24443694 0)
(0.97218974 0.22606776 3.5166461e-21)
(0.95521288 0.19272244 0)
(1.880247 0.51278759 -3.5012758e-24)
(1.2530799 0.0067605926 1.3775949e-20)
(1.3964145 -0.28938264 2.0791274e-23)
(1.5322331 -0.10985479 -1.5137367e-20)
(1.0896544 0.1446991 6.0394432e-21)
(0.99793993 0.22857957 9.9929298e-24)
(0.99431019 0.24009516 4.527137e-21)
(0.98786746 0.23768184 -3.9832218e-21)
(0.9749627 0.21926011 -3.5237111e-21)
(0.95813458 0.18635054 0)
(1.944904 0.15549426 -1.4667012e-23)
(1.2167313 -0.34831575 4.3185454e-23)
(2.1941312 -0.46810728 -2.0352501e-23)
(1.8796807 -0.16865122 7.3724162e-21)
(1.0915348 0.14202001 1.1486101e-23)
(1.0011394 0.22174779 0)
(0.99796131 0.23296874 0)
(0.99065879 0.2307422 3.986816e-21)
(0.97738226 0.21257274 0)
(0.96073649 0.1801222 0)
(0.94374808 0.1424509 -2.9158167e-21)
(2.1018554 -0.65583837 -1.4310227e-23)
(2.4354723 -0.81094788 1.2281437e-20)
(3.4195992 -0.61980622 0)
(2.1019219 -0.22362465 7.310337e-21)
(1.0667334 0.14199419 0)