/*--------------------------------*- C++ -*----------------------------------*\
| =========                 |                                                 |
| \\      /  F ield         | OpenFOAM: The Open Source CFD Toolbox           |
|  \\    /   O peration     | Version:  2206                                  |
|   \\  /    A nd           | Website:  www.openfoam.com                      |
|    \\/     M anipulation  |                                                 |
\*---------------------------------------------------------------------------*/
FoamFile
{
    version     2.0;
    format      ascii;
    arch        "LSB;label=32;scalar=64";
    class       volScalarField;
    location    "0.01";
    object      alphat;
}
// * * * * * * * * * * * * * * * * * * * * * * * * * * * * * * * * * * * * * //

dimensions      [1 -1 -1 0 0 0 0];

internalField   nonuniform List<scalar> 
1396
(
2.7771609e-08
2.7771563e-08
2.7771515e-08
2.7771462e-08
2.7771403e-08
2.7771339e-08
2.7771268e-08
2.777119e-08
2.7771101e-08
2.7770988e-08
2.777087e-08
2.7770736e-08
2.7770584e-08
2.7770417e-08
2.7771782e-08
2.7771756e-08
2.7771728e-08
2.7771697e-08
2.7771658e-08
2.777162e-08
2.7771579e-08
2.7771535e-08
2.7771486e-08
2.7771432e-08
2.7771374e-08
2.7771311e-08
2.777124e-08
2.7771151e-08
2.7771907e-08
2.7771887e-08
2.777187e-08
2.777185e-08
2.7771829e-08
2.7771807e-08
2.7771784e-08
2.7771759e-08
2.7771733e-08
2.7771704e-08
2.7771666e-08
2.7771632e-08
2.7771594e-08
2.7771554e-08
2.7770761e-08
2.7770625e-08
2.7770491e-08
2.777035e-08
2.7770203e-08
2.7770038e-08
2.7769844e-08
2.7769623e-08
2.7769373e-08
2.7769083e-08
2.7768775e-08
2.776838e-08
2.77678e-08
2.7766431e-08
2.777091e-08
2.7770788e-08
2.7770671e-08
2.7770543e-08
2.7770406e-08
2.7770248e-08
2.777008e-08
2.776989e-08
2.7769676e-08
2.7769435e-08
2.7769135e-08
2.7768798e-08
2.776838e-08
2.776771e-08
2.7771039e-08
2.7770927e-08
2.7770816e-08
2.7770704e-08
2.7770584e-08
2.7770451e-08
2.7770291e-08
2.7770115e-08
2.7769915e-08
2.7769696e-08
2.7769422e-08
2.7769106e-08
2.7768732e-08
2.7768258e-08
2.7771145e-08
2.7771047e-08
2.7770955e-08
2.777085e-08
2.7770737e-08
2.7770613e-08
2.7770467e-08
2.7770304e-08
2.7770121e-08
2.7769907e-08
2.776965e-08
2.7769368e-08
2.7769044e-08
2.7768668e-08
2.7771252e-08
2.7771156e-08
2.7771069e-08
2.7770972e-08
2.7770866e-08
2.7770753e-08
2.7770616e-08
2.7770463e-08
2.7770288e-08
2.7770104e-08
2.7769885e-08
2.7769623e-08
2.7769321e-08
2.7768979e-08
2.7771343e-08
2.7771255e-08
2.7771173e-08
2.7771085e-08
2.7770987e-08
2.7770876e-08
2.7770758e-08
2.7770625e-08
2.7770476e-08
2.7770292e-08
2.7770088e-08
2.7769845e-08
2.7769561e-08
2.776923e-08
2.7771405e-08
2.7771325e-08
2.7771249e-08
2.7771166e-08
2.7771081e-08
2.7770986e-08
2.7770871e-08
2.7770745e-08
2.7770605e-08
2.7770431e-08
2.7770238e-08
2.7770009e-08
2.7769743e-08
2.7769457e-08
2.7771496e-08
2.7771423e-08
2.7771355e-08
2.7771284e-08
2.77712e-08
2.7771111e-08
2.7771005e-08
2.7770887e-08
2.7770755e-08
2.77706e-08
2.7770424e-08
2.777022e-08
2.7769985e-08
2.77697e-08
2.7772266e-08
2.7772266e-08
2.7772267e-08
2.7772267e-08
2.7772267e-08
2.7772261e-08
2.7772262e-08
2.7772262e-08
2.7772262e-08
2.7772263e-08
2.7772263e-08
2.7772263e-08
2.7772255e-08
2.7772256e-08
2.7772256e-08
2.7772257e-08
2.7772257e-08
2.7772257e-08
2.7772258e-08
2.7772258e-08
2.7772259e-08
2.7772248e-08
2.7772248e-08
2.7772249e-08
2.7772249e-08
2.777225e-08
2.7772251e-08
2.7772251e-08
2.7772251e-08
2.7772252e-08
2.7772253e-08
2.7772253e-08
2.7772238e-08
2.7772239e-08
2.7772239e-08
2.777224e-08
2.777224e-08
2.7772241e-08
2.7772242e-08
2.7772242e-08
2.7772243e-08
2.7772244e-08
2.7772245e-08
2.7772245e-08
2.7772226e-08
2.7772227e-08
2.7772227e-08
2.7772228e-08
2.7772229e-08
2.7772229e-08
2.7772231e-08
2.7772232e-08
2.7772232e-08
2.7772234e-08
2.7772234e-08
2.7772235e-08
2.7772236e-08
2.777221e-08
2.7772211e-08
2.7772212e-08
2.7772213e-08
2.7772214e-08
2.7772215e-08
2.7772216e-08
2.7772218e-08
2.7772219e-08
2.777222e-08
2.7772222e-08
2.7772187e-08
2.7772187e-08
2.7772189e-08
2.7772191e-08
2.7772192e-08
2.7772194e-08
2.7772196e-08
2.7772197e-08
2.77722e-08
2.7772201e-08
2.7772154e-08
2.7772155e-08
2.7772158e-08
2.7772161e-08
2.7772163e-08
2.7772165e-08
2.7772168e-08
2.777217e-08
2.7772104e-08
2.7772107e-08
2.7772112e-08
2.7772115e-08
2.7772119e-08
2.7772121e-08
2.7772023e-08
2.7772028e-08
2.7772034e-08
2.7772039e-08
2.7771875e-08
2.7771877e-08
2.77715e-08
2.7772266e-08
2.7772266e-08
2.7772266e-08
2.7772266e-08
2.7772266e-08
2.7772266e-08
2.7772266e-08
2.7772266e-08
2.7772266e-08
2.7772266e-08
2.7772261e-08
2.7772261e-08
2.7772261e-08
2.7772261e-08
2.7772261e-08
2.7772261e-08
2.7772261e-08
2.7772261e-08
2.7772255e-08
2.7772255e-08
2.7772255e-08
2.7772255e-08
2.7772255e-08
2.7772255e-08
2.7772248e-08
2.7772248e-08
2.7772248e-08
2.7772248e-08
2.7772238e-08
2.7772238e-08
2.7771612e-08
2.7771916e-08
2.7772055e-08
2.7772129e-08
2.7772176e-08
2.7772204e-08
2.7772223e-08
2.7771651e-08
2.7771929e-08
2.7772061e-08
2.7772134e-08
2.7772177e-08
2.7772205e-08
2.7772225e-08
2.7771684e-08
2.7771943e-08
2.7772069e-08
2.7772138e-08
2.777218e-08
2.7772206e-08
2.7772225e-08
2.7771717e-08
2.7771957e-08
2.7772076e-08
2.7772142e-08
2.7772182e-08
2.7772209e-08
2.7772227e-08
2.7771148e-08
2.777175e-08
2.7771973e-08
2.7772083e-08
2.7772145e-08
2.7772185e-08
2.777221e-08
2.7772227e-08
2.7771243e-08
2.7771779e-08
2.7771986e-08
2.777209e-08
2.777215e-08
2.7772187e-08
2.7772212e-08
2.7771327e-08
2.7771809e-08
2.7771999e-08
2.7772097e-08
2.7772154e-08
2.7772189e-08
2.7772213e-08
2.7771398e-08
2.7771836e-08
2.777201e-08
2.7772103e-08
2.7772157e-08
2.7772192e-08
2.7772215e-08
2.7771465e-08
2.777186e-08
2.7772023e-08
2.7772109e-08
2.7772161e-08
2.7772194e-08
2.7772216e-08
2.7771528e-08
2.7771882e-08
2.7772034e-08
2.7772115e-08
2.7772164e-08
2.7772197e-08
2.7771577e-08
2.7771903e-08
2.7772043e-08
2.7772121e-08
2.7772168e-08
2.7772199e-08
2.7771633e-08
2.7771924e-08
2.7772054e-08
2.7772127e-08
2.7772172e-08
2.7772201e-08
2.7771662e-08
2.7771937e-08
2.7772061e-08
2.7772131e-08
2.7772174e-08
2.7772202e-08
2.7771724e-08
2.7771962e-08
2.7772074e-08
2.7772138e-08
2.7772178e-08
2.7772205e-08
2.7771799e-08
2.7771909e-08
2.7771991e-08
2.7771992e-08
2.7772045e-08
2.7772088e-08
2.777209e-08
2.7772118e-08
2.7772148e-08
2.7772185e-08
2.7770287e-08
2.7770188e-08
2.7770097e-08
2.7770024e-08
2.7769975e-08
2.7769888e-08
2.7769829e-08
2.7769793e-08
2.7769776e-08
2.776974e-08
2.7769739e-08
2.7769754e-08
2.7769759e-08
2.7771084e-08
2.7771051e-08
2.7771026e-08
2.7770988e-08
2.7770963e-08
2.7770948e-08
2.7770923e-08
2.7770912e-08
2.7770917e-08
2.7771525e-08
2.7771507e-08
2.7771495e-08
2.7771486e-08
2.3850087e-08
2.1862255e-08
1.9741253e-08
1.7624292e-08
1.5599677e-08
1.372075e-08
1.2075902e-08
1.0671346e-08
1.0080919e-08
1.0144096e-08
1.1268876e-08
1.156651e-08
1.1107339e-08
1.0787012e-08
2.3159547e-08
2.1117118e-08
1.9002957e-08
1.6927772e-08
1.496028e-08
1.3148063e-08
1.1589198e-08
1.0268696e-08
9.840232e-09
1.0131246e-08
1.115841e-08
1.1128704e-08
1.0696985e-08
1.0446556e-08
2.2572809e-08
2.0508956e-08
1.8413547e-08
1.6377559e-08
1.4457486e-08
1.2696521e-08
1.1203452e-08
9.9370985e-09
9.6543819e-09
1.0105882e-08
1.101334e-08
1.0739139e-08
1.0305593e-08
1.0083494e-08
2.2129742e-08
2.0064667e-08
1.7987017e-08
1.5979836e-08
1.4092074e-08
1.2363497e-08
1.0917194e-08
9.6742311e-09
9.5056988e-09
1.0049614e-08
1.0848489e-08
1.0415742e-08
1.0014396e-08
9.713282e-09
2.1831356e-08
1.9769402e-08
1.7698389e-08
1.5703771e-08
1.3828914e-08
1.2111944e-08
1.0679807e-08
9.4539984e-09
9.3416794e-09
9.9238931e-09
1.0634792e-08
1.0119642e-08
9.7527833e-09
9.3637908e-09
2.1671179e-08
1.9608376e-08
1.7528163e-08
1.5527442e-08
1.3643855e-08
1.1914824e-08
1.046502e-08
9.2268873e-09
9.1143478e-09
9.69404e-09
1.0357488e-08
9.833981e-09
9.4423848e-09
9.0161251e-09
2.1684818e-08
1.9619681e-08
1.7516914e-08
1.549181e-08
1.3577662e-08
1.181094e-08
1.0309313e-08
9.0151984e-09
8.8415283e-09
9.3788513e-09
1.0058915e-08
9.6218464e-09
9.1286789e-09
8.6048814e-09
2.1883249e-08
1.9812574e-08
1.7674587e-08
1.5607842e-08
1.3642844e-08
1.1814924e-08
1.0232783e-08
8.8330301e-09
8.5360214e-09
8.975595e-09
9.7030118e-09
9.4625174e-09
8.7912035e-09
8.1801307e-09
2.2359927e-08
2.0298014e-08
1.8123294e-08
1.6000196e-08
1.3963834e-08
1.2053113e-08
1.0374407e-08
8.8536995e-09
8.3667448e-09
8.6649461e-09
9.5252545e-09
9.5503256e-09
8.9201171e-09
7.714735e-09
2.2807613e-08
2.0709307e-08
1.8449304e-08
1.6229509e-08
1.4088659e-08
1.2061065e-08
1.0235158e-08
8.5275373e-09
7.746174e-09
7.7563483e-09
8.5026101e-09
8.9310054e-09
7.7863166e-09
7.3651881e-09
2.3862552e-08
2.1908509e-08
1.9700095e-08
1.7460058e-08
1.5256544e-08
1.3142017e-08
1.1200422e-08
9.4818363e-09
8.4699199e-09
8.3439799e-09
9.4583402e-09
1.0759802e-08
9.726905e-09
7.9769318e-09
2.3838167e-08
2.1721965e-08
1.9195303e-08
1.6677565e-08
1.4241762e-08
1.1914321e-08
9.7386042e-09
7.6464467e-09
6.2078354e-09
5.8446759e-09
6.2094568e-09
7.8629099e-09
6.9708739e-09
1.924792e-08
2.7768179e-08
2.7767448e-08
2.7766114e-08
2.7763265e-08
2.775729e-08
2.7745068e-08
2.7720821e-08
2.7674532e-08
2.7589398e-08
2.7446759e-08
2.7235307e-08
2.6955254e-08
2.6650187e-08
2.6348489e-08
2.7766987e-08
2.7764668e-08
2.7759829e-08
2.7749044e-08
2.7726577e-08
2.7682016e-08
2.7599481e-08
2.7456064e-08
2.7223309e-08
2.6873512e-08
2.6393176e-08
2.5802539e-08
2.5173605e-08
2.459732e-08
2.7764294e-08
2.7757565e-08
2.7743179e-08
2.7711999e-08
2.7650009e-08
2.753553e-08
2.7339664e-08
2.7028449e-08
2.6569617e-08
2.5948412e-08
2.5190944e-08
2.4376651e-08
2.3566135e-08
2.2704487e-08
2.7757671e-08
2.7739512e-08
2.7701852e-08
2.7624149e-08
2.7479023e-08
2.7230193e-08
2.6837525e-08
2.62659e-08
2.5500861e-08
2.4570487e-08
2.3566568e-08
2.2561372e-08
2.1501314e-08
2.0418976e-08
2.774328e-08
2.7700483e-08
2.7616653e-08
2.7453649e-08
2.7168618e-08
2.6713216e-08
2.6047806e-08
2.5156449e-08
2.4065929e-08
2.2863663e-08
2.1643088e-08
2.041571e-08
1.9232387e-08
1.7959355e-08
2.7630669e-08
2.7476425e-08
2.7190236e-08
2.6720168e-08
2.6016014e-08
2.5053265e-08
2.3844365e-08
2.2456878e-08
2.0998969e-08
1.9518448e-08
1.8197522e-08
1.6893569e-08
1.5452052e-08
2.7537125e-08
2.7299583e-08
2.6880901e-08
2.62295e-08
2.5302347e-08
2.4087071e-08
2.2607343e-08
2.0956544e-08
1.9186906e-08
1.7546105e-08
1.6085759e-08
1.4595585e-08
1.2983757e-08
2.744884e-08
2.7146518e-08
2.6640099e-08
2.5886047e-08
2.4845456e-08
2.3495647e-08
2.1835074e-08
1.992957e-08
1.7926643e-08
1.6035169e-08
1.4279876e-08
1.2466225e-08
1.0680457e-08
2.7087062e-08
2.6603448e-08
2.5898242e-08
2.4944389e-08
2.3683282e-08
2.2043248e-08
2.0012423e-08
1.7778974e-08
1.5478418e-08
1.3182439e-08
1.0849009e-08
8.8883024e-09
2.7185603e-08
2.6831996e-08
2.635344e-08
2.5736224e-08
2.4898147e-08
2.3677329e-08
2.1908114e-08
1.9653387e-08
1.6878679e-08
1.3673634e-08
1.055158e-08
8.2234615e-09
2.7385029e-08
2.7217194e-08
2.7052876e-08
2.6911918e-08
2.6727857e-08
2.6365546e-08
2.5604666e-08
2.418462e-08
2.2062493e-08
1.8768158e-08
1.299265e-08
9.4043777e-09
2.7511472e-08
2.7534643e-08
2.7654112e-08
2.7895598e-08
2.8272073e-08
2.892556e-08
2.9731663e-08
3.0181971e-08
2.8551118e-08
2.4932102e-08
1.7647295e-08
2.7630988e-08
2.7632172e-08
2.7665215e-08
2.7668053e-08
2.7470049e-08
2.7241938e-08
2.7289419e-08
2.7946641e-08
3.1849841e-08
3.6122669e-08
3.1129432e-08
2.7703147e-08
2.7667483e-08
2.7517792e-08
2.6809579e-08
2.4642367e-08
2.0084682e-08
1.3211812e-08
7.1167032e-09
5.2023689e-09
9.1550484e-09
2.1868656e-08
4.273084e-09
3.241651e-09
3.1805145e-09
4.6414752e-09
9.1188179e-09
1.6086907e-08
2.2416516e-08
2.579349e-08
2.7132242e-08
2.7520214e-08
3.6249364e-09
3.6315318e-09
3.7030764e-09
5.0457058e-09
9.0355809e-09
1.5457184e-08
2.1877135e-08
2.5627246e-08
2.7075223e-08
2.7544094e-08
3.8426403e-09
3.9428624e-09
3.7492188e-09
5.0806218e-09
8.8654412e-09
1.5003208e-08
2.135678e-08
2.5410155e-08
2.6987898e-08
2.7536092e-08
3.8624558e-09
4.1591805e-09
4.1336889e-09
5.3991358e-09
8.7372301e-09
1.4447929e-08
2.0755779e-08
2.5107656e-08
2.6926402e-08
2.7532185e-08
2.7691703e-08
3.9429772e-09
4.454305e-09
4.2202182e-09
5.5425326e-09
8.7791173e-09
1.4092712e-08
2.0181115e-08
2.4722957e-08
2.6825521e-08
2.7517028e-08
2.7713573e-08
4.0319104e-09
4.6638705e-09
4.5363657e-09
5.7971944e-09
8.7709104e-09
1.3676794e-08
1.9567973e-08
2.4270882e-08
2.6694799e-08
2.7484149e-08
2.7714363e-08
4.0190289e-09
4.8822131e-09
4.6300587e-09
6.034799e-09
8.9938455e-09
1.3459326e-08
1.8987604e-08
2.3745369e-08
2.645181e-08
2.7444287e-08
2.7720619e-08
4.0265598e-09
5.1046862e-09
4.8817294e-09
6.2669768e-09
9.129698e-09
1.3286635e-08
1.8451715e-08
2.3187653e-08
2.6127567e-08
2.7361248e-08
2.7709533e-08
3.9444241e-09
5.269164e-09
4.9780182e-09
6.5418154e-09
9.4037763e-09
1.323842e-08
1.7985801e-08
2.2626784e-08
2.5760317e-08
2.7216168e-08
2.7686223e-08
3.8711518e-09
5.5134042e-09
5.1826858e-09
6.7590213e-09
9.6341725e-09
1.3256921e-08
1.7602701e-08
2.2064347e-08
2.5338786e-08
2.7020555e-08
2.7630951e-08
3.7508986e-09
5.6506448e-09
5.2591771e-09
7.0228183e-09
9.946788e-09
1.3345487e-08
1.7305283e-08
2.1550576e-08
2.489757e-08
2.6780698e-08
2.754467e-08
3.6402605e-09
5.9155675e-09
5.4399849e-09
7.2490634e-09
1.0270611e-08
1.3538414e-08
1.7096035e-08
2.1090058e-08
2.4449005e-08
2.6502523e-08
2.7427608e-08
3.5369779e-09
6.0997442e-09
5.5384994e-09
7.5206086e-09
1.0614196e-08
1.3818897e-08
1.7025452e-08
2.075811e-08
2.4062392e-08
2.6223373e-08
2.7292219e-08
3.5180911e-09
6.4786152e-09
5.7871489e-09
7.8322768e-09
1.1049641e-08
1.4253112e-08
1.7156283e-08
2.0613164e-08
2.3803315e-08
2.5996839e-08
2.7162921e-08
3.6283581e-08
2.508468e-08
2.9087752e-08
2.7777771e-08
2.7777141e-08
2.7771428e-08
2.7771631e-08
2.7771794e-08
2.7771904e-08
2.7771981e-08
2.7772038e-08
2.777208e-08
2.7772113e-08
2.7772139e-08
3.8444561e-08
2.5072904e-08
2.888743e-08
2.7767192e-08
2.7777002e-08
2.7771445e-08
2.7771639e-08
2.7771796e-08
2.7771904e-08
2.7771981e-08
2.7772037e-08
2.777208e-08
2.7772112e-08
2.7772138e-08
4.1107254e-08
2.5176919e-08
2.8562373e-08
2.7753986e-08
2.7776315e-08
2.7771429e-08
2.777165e-08
2.77718e-08
2.7771907e-08
2.7771982e-08
2.7772038e-08
2.777208e-08
2.7772112e-08
2.7772138e-08
4.0660568e-08
2.5624867e-08
2.8282376e-08
2.7747733e-08
2.7775167e-08
2.7771396e-08
2.777166e-08
2.7771806e-08
2.777191e-08
2.7771985e-08
2.777204e-08
2.7772081e-08
2.7772113e-08
2.7772138e-08
3.8427454e-08
2.6228221e-08
2.8094118e-08
2.7748414e-08
2.7773972e-08
2.7771384e-08
2.7771673e-08
2.7771814e-08
2.7771915e-08
2.7771986e-08
2.777204e-08
2.7772081e-08
2.7772113e-08
2.7772138e-08
3.5179392e-08
2.6798944e-08
2.797386e-08
2.7752955e-08
2.7773009e-08
2.7771392e-08
2.7771682e-08
2.777182e-08
2.7771919e-08
2.7771994e-08
2.7772046e-08
2.7772085e-08
2.7772116e-08
2.7772141e-08
3.211967e-08
2.7200415e-08
2.789228e-08
2.7758367e-08
2.7772317e-08
2.7771441e-08
2.7771704e-08
2.7771836e-08
2.777193e-08
2.7771992e-08
2.7772044e-08
2.7772084e-08
2.7772115e-08
2.7772139e-08
2.9986018e-08
2.7442857e-08
2.7839263e-08
2.7763009e-08
2.7771897e-08
2.777147e-08
2.7771708e-08
2.7771838e-08
2.777193e-08
2.8811704e-08
2.7586472e-08
2.7808066e-08
2.7766299e-08
2.7771627e-08
2.8246374e-08
2.7670748e-08
2.5283109e-08
2.4744682e-08
2.4263908e-08
2.3886375e-08
2.3626802e-08
2.3493368e-08
2.3514182e-08
2.3705369e-08
2.4097705e-08
2.4535732e-08
2.5255048e-08
2.560894e-08
2.631605e-08
2.5919213e-08
2.5544976e-08
2.522909e-08
2.4991029e-08
2.484891e-08
2.483045e-08
2.4952839e-08
2.521794e-08
2.5545561e-08
2.6023964e-08
2.6258701e-08
2.7009522e-08
2.6750717e-08
2.6490417e-08
2.6254305e-08
2.6060585e-08
2.5929893e-08
2.5888807e-08
2.5952749e-08
2.6117391e-08
2.6334312e-08
2.6640877e-08
2.6755158e-08
2.7544477e-08
2.7417651e-08
2.7270627e-08
2.7111427e-08
2.6955362e-08
2.6815954e-08
2.6710723e-08
2.6661762e-08
2.6682316e-08
2.6769776e-08
2.6894944e-08
2.7074615e-08
2.712741e-08
2.7680626e-08
2.7623651e-08
2.7551127e-08
2.7466106e-08
2.7375731e-08
2.7288271e-08
2.7215708e-08
2.7173508e-08
2.7171845e-08
2.7210491e-08
2.7274126e-08
2.7368687e-08
2.739064e-08
2.7748421e-08
2.7737452e-08
2.7714531e-08
2.7683073e-08
2.7643248e-08
2.7597552e-08
2.7549717e-08
2.750648e-08
2.7477324e-08
2.7469013e-08
2.7482419e-08
2.7510619e-08
2.7555112e-08
2.7560322e-08
2.7761662e-08
2.7758118e-08
2.7749922e-08
2.773788e-08
2.7721423e-08
2.7700941e-08
2.7677878e-08
2.7655365e-08
2.763819e-08
2.7630368e-08
2.7632925e-08
2.76433e-08
2.7661359e-08
2.765944e-08
2.7766093e-08
2.7764842e-08
2.776223e-08
2.7758097e-08
2.7752026e-08
2.7743876e-08
2.7733935e-08
2.772343e-08
2.7714586e-08
2.7709244e-08
2.7708327e-08
2.7711061e-08
2.7717019e-08
2.7713405e-08
2.7767601e-08
2.7767077e-08
2.7766155e-08
2.7764812e-08
2.7762813e-08
2.7759858e-08
2.7756021e-08
2.7751612e-08
2.7747456e-08
2.7744501e-08
2.7743119e-08
2.7743297e-08
2.7744581e-08
2.7741553e-08
2.7768244e-08
2.7767958e-08
2.7767558e-08
2.776703e-08
2.7766305e-08
2.7765341e-08
2.7763971e-08
2.7762298e-08
2.7760541e-08
2.7759041e-08
2.7758119e-08
2.7757745e-08
2.7757662e-08
2.7755692e-08
2.7768597e-08
2.7768415e-08
2.7768187e-08
2.776791e-08
2.7767586e-08
2.7767162e-08
2.7766706e-08
2.7766099e-08
2.7765424e-08
2.7764753e-08
2.7764222e-08
2.7763928e-08
2.7763632e-08
2.7762557e-08
2.7768941e-08
2.7768743e-08
2.7768563e-08
2.7768392e-08
2.7768198e-08
2.7767975e-08
2.7767714e-08
2.776751e-08
2.7767257e-08
2.7766983e-08
2.7766722e-08
2.7766554e-08
2.7766372e-08
2.7765851e-08
2.7769199e-08
2.7769033e-08
2.7768857e-08
2.7768685e-08
2.7768549e-08
2.7768407e-08
2.7768249e-08
2.776808e-08
2.7767977e-08
2.7767877e-08
2.7767766e-08
2.7767676e-08
2.7767587e-08
2.7767394e-08
2.7769442e-08
2.7769302e-08
2.7769159e-08
2.7769013e-08
2.7768869e-08
2.7768752e-08
2.7768643e-08
2.7768537e-08
2.776844e-08
2.7768382e-08
2.7768345e-08
2.7768318e-08
2.7768284e-08
2.7768202e-08
2.7772268e-08
2.7772289e-08
2.7772293e-08
2.7772294e-08
2.7772268e-08
2.7772289e-08
2.7772293e-08
2.7772268e-08
2.7772289e-08
2.7772268e-08
2.7772268e-08
2.7772284e-08
2.7772284e-08
2.7772284e-08
2.7772284e-08
2.7772284e-08
2.7772284e-08
2.7772284e-08
2.7772284e-08
2.7772284e-08
2.7772284e-08
2.7772284e-08
2.7772284e-08
2.7772284e-08
2.7772291e-08
2.7772295e-08
2.7772295e-08
2.7772295e-08
2.7772295e-08
2.7772295e-08
2.7772295e-08
2.7772295e-08
2.7772295e-08
2.7772295e-08
2.7772295e-08
2.7772295e-08
2.7772295e-08
2.7772295e-08
2.7772295e-08
2.7772295e-08
2.7772295e-08
2.7772295e-08
2.7772294e-08
2.7772295e-08
2.7772294e-08
2.7772293e-08
2.7772294e-08
2.7772293e-08
2.7772293e-08
2.7772291e-08
2.7772293e-08
2.7772291e-08
2.7772291e-08
2.7772291e-08
2.7772291e-08
2.7772284e-08
9.9655852e-08
2.7935514e-08
2.8969732e-08
2.7776914e-08
2.7771341e-08
2.7771369e-08
2.777163e-08
2.7771797e-08
2.7771909e-08
2.7771987e-08
2.7772044e-08
2.7772086e-08
2.7772119e-08
2.7772145e-08
7.7657965e-08
2.7962448e-08
2.8532589e-08
2.7774874e-08
2.7771429e-08
2.7771509e-08
2.7771727e-08
2.7771863e-08
2.7771956e-08
2.7772023e-08
2.7772072e-08
2.777211e-08
2.7772139e-08
2.7772162e-08
6.829854e-08
2.7888548e-08
2.8287387e-08
2.7773561e-08
2.7771478e-08
2.7771636e-08
2.777182e-08
2.7771939e-08
2.7772013e-08
2.7772067e-08
2.7772107e-08
2.7772138e-08
2.7772162e-08
2.777218e-08
6.1373281e-08
2.7874684e-08
2.8131086e-08
2.7772985e-08
2.7771555e-08
2.777173e-08
2.7771888e-08
2.7771988e-08
2.7772054e-08
2.77721e-08
2.7772135e-08
2.7772161e-08
2.7772182e-08
2.7772197e-08
2.7772295e-08
2.7772295e-08
2.7772295e-08
2.7772295e-08
2.7772295e-08
2.7772295e-08
2.7772295e-08
2.7772295e-08
2.7772295e-08
2.7772295e-08
2.7772295e-08
2.7772295e-08
2.7772295e-08
2.7772295e-08
2.7772295e-08
2.7772295e-08
2.7772295e-08
2.7772295e-08
2.7772295e-08
2.7772295e-08
2.7772295e-08
2.7772295e-08
2.7772295e-08
2.7772295e-08
2.7772295e-08
2.7772294e-08
2.7772295e-08
2.7772295e-08
2.7772295e-08
2.7772295e-08
2.7772295e-08
2.7772295e-08
2.7772295e-08
2.7772295e-08
2.7772295e-08
2.7772295e-08
2.7772294e-08
2.7772293e-08
2.7772289e-08
2.7772271e-08
2.7772295e-08
2.7772295e-08
2.7772295e-08
2.7772295e-08
2.7772295e-08
2.7772295e-08
2.7772295e-08
2.7772295e-08
2.7772295e-08
2.7772295e-08
2.7772294e-08
2.7772293e-08
2.7772289e-08
2.7772269e-08
2.7772295e-08
2.7772295e-08
2.7772295e-08
2.7772295e-08
2.7772295e-08
2.7772295e-08
2.7772295e-08
2.7772294e-08
2.7772293e-08
2.7772289e-08
2.7772268e-08
2.7772295e-08
2.7772295e-08
2.7772295e-08
2.7772294e-08
2.7772293e-08
2.7772289e-08
2.7772267e-08
)
;

boundaryField
{
    Side
    {
        type            empty;
    }
    Inlet
    {
        type            calculated;
        value           nonuniform List<scalar> 7(2.7772295e-08 3.9592188e-07 3.9592188e-07 3.9592188e-07 3.9592188e-07 3.9592188e-07 3.9592188e-07);
    }
    Airfoil
    {
        type            compressible::alphatWallFunction;
        value           nonuniform List<scalar> 0();
    }
    Outlet
    {
        type            zeroGradient;
    }
    Flap
    {
        type            compressible::alphatWallFunction;
        value           nonuniform List<scalar> 
30
(
9.1048692e-07
8.7708794e-07
8.5102523e-07
8.3043205e-07
8.1266951e-07
7.9692515e-07
7.8532049e-07
7.7826307e-07
7.7789204e-07
7.5815261e-07
8.0178453e-07
4.9267353e-07
1.6016229e-06
1.7531848e-06
1.8531165e-06
1.9362705e-06
2.0057547e-06
2.0658553e-06
2.1191367e-06
2.1673875e-06
2.2118678e-06
2.2534488e-06
2.2928933e-06
2.3311568e-06
2.3695223e-06
2.4076317e-06
1.2224547e-05
1.2240856e-05
1.2803869e-05
1.3295375e-05
)
;
    }
    procBoundary4to3
    {
        type            processor;
        value           nonuniform List<scalar> 
142
(
2.7770367e-08
2.7770564e-08
2.7770564e-08
2.7770411e-08
2.7770263e-08
2.7770105e-08
2.7769946e-08
2.7769759e-08
2.7769548e-08
2.7769308e-08
2.7769035e-08
2.7768722e-08
2.7768325e-08
2.7767721e-08
2.7766479e-08
2.7762476e-08
2.7762476e-08
2.7772225e-08
2.7772225e-08
2.7772209e-08
2.7772209e-08
2.7772209e-08
2.7772185e-08
2.7772185e-08
2.7772151e-08
2.7772152e-08
2.7772152e-08
2.7772098e-08
2.77721e-08
2.77721e-08
2.7772012e-08
2.7772015e-08
2.7772015e-08
2.7771846e-08
2.7771859e-08
2.7771859e-08
2.7771489e-08
2.7771489e-08
2.7770294e-08
2.7772261e-08
2.7772265e-08
2.7772261e-08
2.7772265e-08
2.7772265e-08
2.7772265e-08
2.7772264e-08
2.7772255e-08
2.7772261e-08
2.7772255e-08
2.7772247e-08
2.7772255e-08
2.7772248e-08
2.7772237e-08
2.7772247e-08
2.7772238e-08
2.7772225e-08
2.7772237e-08
2.7772225e-08
2.7770752e-08
2.7770845e-08
2.7770971e-08
2.7771042e-08
2.7771042e-08
2.4553507e-08
2.2659486e-08
2.0549419e-08
1.8394481e-08
1.6309578e-08
1.4356895e-08
1.2620149e-08
1.1128372e-08
1.0420178e-08
1.0225749e-08
1.1418472e-08
1.1993795e-08
1.1440189e-08
1.1242167e-08
2.5820809e-08
2.669416e-08
2.723964e-08
2.723964e-08
2.7606144e-08
2.7708073e-08
2.7708073e-08
2.7772264e-08
2.7772295e-08
2.7772295e-08
2.7772295e-08
2.7772295e-08
2.7772295e-08
2.7772295e-08
2.7772295e-08
2.7772295e-08
2.7772295e-08
2.7772295e-08
2.7772295e-08
2.7772295e-08
2.7772295e-08
2.7772294e-08
2.7772294e-08
2.7772293e-08
2.7772293e-08
2.7772291e-08
2.7772291e-08
2.7772291e-08
2.7772283e-08
2.7772283e-08
2.7772283e-08
2.7772284e-08
2.7772284e-08
5.6123551e-08
2.7873175e-08
2.8030325e-08
2.7772653e-08
2.7771624e-08
2.7771799e-08
2.7771937e-08
2.7772025e-08
2.7772085e-08
2.7772125e-08
2.7772155e-08
2.7772178e-08
2.7772196e-08
2.777221e-08
2.7772295e-08
2.7772295e-08
2.7772295e-08
2.7772295e-08
2.7772295e-08
2.7772295e-08
2.7772295e-08
2.7772295e-08
2.7772295e-08
2.7772295e-08
2.7772295e-08
2.7772295e-08
2.7772295e-08
2.7772294e-08
2.7772293e-08
2.7772293e-08
2.7772289e-08
2.7772272e-08
)
;
    }
    procBoundary4to5
    {
        type            processor;
        value           nonuniform List<scalar> 
189
(
2.7771996e-08
2.7771985e-08
2.7771973e-08
2.7771962e-08
2.7771949e-08
2.7771936e-08
2.7771923e-08
2.7771908e-08
2.7771889e-08
2.7771872e-08
2.7771854e-08
2.7771835e-08
2.7771815e-08
2.7771794e-08
2.7772284e-08
2.7772284e-08
2.7772284e-08
2.7772284e-08
2.7772267e-08
2.7772284e-08
2.7772267e-08
2.7772268e-08
2.7772264e-08
2.7772264e-08
2.7772264e-08
2.7772259e-08
2.7772259e-08
2.777226e-08
2.7772254e-08
2.7772254e-08
2.7772246e-08
2.7772246e-08
2.7772247e-08
2.7772238e-08
2.7772284e-08
2.7772238e-08
2.7772238e-08
2.7772239e-08
2.777224e-08
2.7772241e-08
2.7772229e-08
2.7772229e-08
2.777223e-08
2.7772231e-08
2.7772232e-08
2.7772218e-08
2.7772218e-08
2.7772219e-08
2.7772221e-08
2.7772222e-08
2.7772223e-08
2.777221e-08
2.7772052e-08
2.7772123e-08
2.7772145e-08
2.7772145e-08
2.7772165e-08
2.7772165e-08
2.7772196e-08
2.777221e-08
2.7770901e-08
2.7770907e-08
2.7770953e-08
2.7769841e-08
2.7771026e-08
2.7769841e-08
2.7771475e-08
2.7771475e-08
2.7771459e-08
2.7771456e-08
2.7770901e-08
2.7771468e-08
2.7771776e-08
2.777177e-08
2.7771762e-08
2.7771475e-08
2.7771758e-08
2.7769863e-08
2.7769677e-08
2.7769444e-08
2.7769052e-08
2.7719464e-08
2.7768293e-08
2.7719464e-08
2.7682926e-08
2.7643999e-08
2.7421868e-08
2.7421868e-08
2.7456254e-08
2.7546599e-08
2.7573556e-08
2.7573556e-08
2.7673161e-08
2.7732444e-08
2.7632713e-08
2.7632713e-08
2.7662059e-08
2.7670069e-08
2.7670069e-08
2.7736251e-08
2.7749207e-08
2.7758206e-08
2.7769997e-08
2.777596e-08
2.777901e-08
2.7772744e-08
2.7755297e-08
2.7721961e-08
2.7675779e-08
2.762265e-08
2.7973293e-08
2.7772268e-08
2.7772e-08
2.777205e-08
2.7772088e-08
2.7772118e-08
2.7772142e-08
2.7772268e-08
2.7771523e-08
2.7771731e-08
2.7771854e-08
2.7772e-08
2.7771942e-08
2.7790095e-08
2.7768564e-08
2.7771523e-08
2.7771503e-08
2.7973293e-08
2.7790095e-08
2.7721381e-08
2.7772295e-08
2.7772294e-08
2.7772295e-08
2.7772295e-08
2.7772295e-08
2.7772294e-08
2.7772293e-08
2.7772293e-08
2.7772289e-08
2.7772289e-08
2.7772289e-08
2.7772268e-08
2.7772291e-08
2.7772291e-08
2.7772291e-08
2.7772291e-08
2.7772291e-08
2.7772291e-08
2.7772291e-08
2.7772291e-08
2.7772291e-08
2.7772291e-08
2.7772291e-08
2.7772284e-08
2.7772291e-08
2.7772291e-08
2.7772293e-08
2.7772295e-08
2.7772295e-08
2.7772295e-08
2.7772295e-08
2.7772295e-08
2.7772295e-08
2.7772295e-08
2.7772295e-08
2.7772295e-08
2.7772295e-08
2.7772295e-08
2.7772295e-08
2.7772295e-08
2.7772295e-08
2.7772295e-08
2.7772295e-08
2.7772294e-08
2.7772294e-08
2.7772294e-08
2.7772293e-08
2.7772293e-08
2.7772293e-08
2.7772293e-08
2.7772295e-08
2.7772295e-08
2.7772295e-08
2.7772295e-08
2.7772295e-08
2.7772295e-08
2.7772295e-08
2.7772295e-08
2.7772295e-08
)
;
    }
}


// ************************************************************************* //
