/*--------------------------------*- C++ -*----------------------------------*\
| =========                 |                                                 |
| \\      /  F ield         | OpenFOAM: The Open Source CFD Toolbox           |
|  \\    /   O peration     | Version:  2206                                  |
|   \\  /    A nd           | Website:  www.openfoam.com                      |
|    \\/     M anipulation  |                                                 |
\*---------------------------------------------------------------------------*/
FoamFile
{
    version     2.0;
    format      ascii;
    arch        "LSB;label=32;scalar=64";
    class       volScalarField;
    location    "0.01";
    object      nut;
}
// * * * * * * * * * * * * * * * * * * * * * * * * * * * * * * * * * * * * * //

dimensions      [0 2 -1 0 0 0 0];

internalField   nonuniform List<scalar> 
1396
(
2.7771636e-08
2.777159e-08
2.7771541e-08
2.7771489e-08
2.777143e-08
2.7771366e-08
2.7771295e-08
2.7771216e-08
2.7771128e-08
2.7771015e-08
2.7770897e-08
2.7770763e-08
2.7770611e-08
2.7770443e-08
2.7771809e-08
2.7771783e-08
2.7771755e-08
2.7771724e-08
2.7771684e-08
2.7771647e-08
2.7771606e-08
2.7771561e-08
2.7771513e-08
2.7771459e-08
2.7771401e-08
2.7771337e-08
2.7771267e-08
2.7771178e-08
2.7771934e-08
2.7771914e-08
2.7771896e-08
2.7771877e-08
2.7771856e-08
2.7771834e-08
2.7771811e-08
2.7771786e-08
2.777176e-08
2.7771731e-08
2.7771693e-08
2.7771658e-08
2.7771621e-08
2.7771581e-08
2.7770788e-08
2.7770651e-08
2.7770518e-08
2.7770377e-08
2.7770229e-08
2.7770064e-08
2.776987e-08
2.776965e-08
2.7769399e-08
2.776911e-08
2.7768802e-08
2.776841e-08
2.7767845e-08
2.7766565e-08
2.7770936e-08
2.7770815e-08
2.7770698e-08
2.777057e-08
2.7770432e-08
2.7770275e-08
2.7770106e-08
2.7769916e-08
2.7769703e-08
2.7769462e-08
2.7769162e-08
2.7768825e-08
2.7768411e-08
2.7767761e-08
2.7771066e-08
2.7770954e-08
2.7770842e-08
2.7770731e-08
2.777061e-08
2.7770477e-08
2.7770318e-08
2.7770141e-08
2.7769942e-08
2.7769722e-08
2.7769448e-08
2.7769133e-08
2.776876e-08
2.776829e-08
2.7771172e-08
2.7771074e-08
2.7770981e-08
2.7770877e-08
2.7770763e-08
2.7770639e-08
2.7770494e-08
2.7770331e-08
2.7770148e-08
2.7769934e-08
2.7769676e-08
2.7769395e-08
2.7769071e-08
2.7768696e-08
2.7771279e-08
2.7771182e-08
2.7771095e-08
2.7770998e-08
2.7770893e-08
2.777078e-08
2.7770643e-08
2.777049e-08
2.7770314e-08
2.7770131e-08
2.7769912e-08
2.776965e-08
2.7769347e-08
2.7769006e-08
2.777137e-08
2.7771281e-08
2.7771199e-08
2.7771112e-08
2.7771013e-08
2.7770903e-08
2.7770785e-08
2.7770652e-08
2.7770502e-08
2.7770319e-08
2.7770115e-08
2.7769871e-08
2.7769588e-08
2.7769257e-08
2.7771432e-08
2.7771351e-08
2.7771275e-08
2.7771193e-08
2.7771107e-08
2.7771013e-08
2.7770898e-08
2.7770772e-08
2.7770632e-08
2.7770458e-08
2.7770264e-08
2.7770036e-08
2.7769769e-08
2.7769484e-08
2.7771522e-08
2.777145e-08
2.7771381e-08
2.7771311e-08
2.7771227e-08
2.7771137e-08
2.7771031e-08
2.7770914e-08
2.7770782e-08
2.7770627e-08
2.7770451e-08
2.7770247e-08
2.7770011e-08
2.7769727e-08
2.7772293e-08
2.7772293e-08
2.7772293e-08
2.7772293e-08
2.7772294e-08
2.7772288e-08
2.7772288e-08
2.7772288e-08
2.7772289e-08
2.7772289e-08
2.777229e-08
2.777229e-08
2.7772282e-08
2.7772282e-08
2.7772283e-08
2.7772283e-08
2.7772284e-08
2.7772284e-08
2.7772285e-08
2.7772285e-08
2.7772285e-08
2.7772275e-08
2.7772275e-08
2.7772275e-08
2.7772276e-08
2.7772276e-08
2.7772277e-08
2.7772278e-08
2.7772278e-08
2.7772279e-08
2.7772279e-08
2.777228e-08
2.7772265e-08
2.7772265e-08
2.7772266e-08
2.7772267e-08
2.7772267e-08
2.7772268e-08
2.7772268e-08
2.7772269e-08
2.777227e-08
2.777227e-08
2.7772272e-08
2.7772272e-08
2.7772253e-08
2.7772253e-08
2.7772254e-08
2.7772255e-08
2.7772256e-08
2.7772256e-08
2.7772257e-08
2.7772258e-08
2.7772259e-08
2.777226e-08
2.7772261e-08
2.7772262e-08
2.7772263e-08
2.7772236e-08
2.7772238e-08
2.7772239e-08
2.7772239e-08
2.7772241e-08
2.7772242e-08
2.7772243e-08
2.7772245e-08
2.7772246e-08
2.7772247e-08
2.7772248e-08
2.7772213e-08
2.7772214e-08
2.7772216e-08
2.7772217e-08
2.7772219e-08
2.7772221e-08
2.7772222e-08
2.7772224e-08
2.7772226e-08
2.7772228e-08
2.7772181e-08
2.7772182e-08
2.7772185e-08
2.7772187e-08
2.7772189e-08
2.7772191e-08
2.7772195e-08
2.7772196e-08
2.7772131e-08
2.7772133e-08
2.7772138e-08
2.7772142e-08
2.7772145e-08
2.7772147e-08
2.7772049e-08
2.7772054e-08
2.777206e-08
2.7772065e-08
2.7771902e-08
2.7771904e-08
2.7771527e-08
2.7772293e-08
2.7772292e-08
2.7772293e-08
2.7772292e-08
2.7772293e-08
2.7772292e-08
2.7772293e-08
2.7772292e-08
2.7772293e-08
2.7772293e-08
2.7772288e-08
2.7772288e-08
2.7772288e-08
2.7772288e-08
2.7772288e-08
2.7772288e-08
2.7772288e-08
2.7772288e-08
2.7772282e-08
2.7772282e-08
2.7772282e-08
2.7772282e-08
2.7772282e-08
2.7772282e-08
2.7772274e-08
2.7772274e-08
2.7772274e-08
2.7772275e-08
2.7772264e-08
2.7772265e-08
2.7771639e-08
2.7771942e-08
2.7772082e-08
2.7772156e-08
2.7772202e-08
2.777223e-08
2.777225e-08
2.7771678e-08
2.7771955e-08
2.7772088e-08
2.7772161e-08
2.7772204e-08
2.7772232e-08
2.7772251e-08
2.777171e-08
2.777197e-08
2.7772096e-08
2.7772164e-08
2.7772206e-08
2.7772233e-08
2.7772252e-08
2.7771744e-08
2.7771983e-08
2.7772103e-08
2.7772168e-08
2.7772208e-08
2.7772235e-08
2.7772254e-08
2.7771174e-08
2.7771777e-08
2.7771999e-08
2.777211e-08
2.7772172e-08
2.7772211e-08
2.7772237e-08
2.7772254e-08
2.7771269e-08
2.7771805e-08
2.7772013e-08
2.7772116e-08
2.7772177e-08
2.7772214e-08
2.7772238e-08
2.7771354e-08
2.7771836e-08
2.7772026e-08
2.7772124e-08
2.777218e-08
2.7772216e-08
2.7772239e-08
2.7771425e-08
2.7771862e-08
2.7772037e-08
2.777213e-08
2.7772184e-08
2.7772218e-08
2.7772242e-08
2.7771491e-08
2.7771887e-08
2.7772049e-08
2.7772136e-08
2.7772188e-08
2.777222e-08
2.7772242e-08
2.7771554e-08
2.7771908e-08
2.777206e-08
2.7772142e-08
2.7772191e-08
2.7772223e-08
2.7771603e-08
2.7771929e-08
2.777207e-08
2.7772147e-08
2.7772195e-08
2.7772225e-08
2.7771659e-08
2.7771951e-08
2.777208e-08
2.7772154e-08
2.7772198e-08
2.7772227e-08
2.7771689e-08
2.7771964e-08
2.7772087e-08
2.7772158e-08
2.7772201e-08
2.7772229e-08
2.7771751e-08
2.7771988e-08
2.7772101e-08
2.7772165e-08
2.7772205e-08
2.7772232e-08
2.7771826e-08
2.7771935e-08
2.7772018e-08
2.7772018e-08
2.7772072e-08
2.7772114e-08
2.7772117e-08
2.7772145e-08
2.7772174e-08
2.7772211e-08
2.7770314e-08
2.7770214e-08
2.7770124e-08
2.7770051e-08
2.7770002e-08
2.7769915e-08
2.7769856e-08
2.776982e-08
2.7769803e-08
2.7769766e-08
2.7769765e-08
2.7769781e-08
2.7769786e-08
2.7771111e-08
2.7771077e-08
2.7771053e-08
2.7771015e-08
2.7770989e-08
2.7770975e-08
2.7770949e-08
2.7770939e-08
2.7770944e-08
2.7771552e-08
2.7771533e-08
2.7771522e-08
2.7771512e-08
2.4929728e-08
2.3562289e-08
2.2095572e-08
2.0579792e-08
1.9058343e-08
1.7571354e-08
1.6210221e-08
1.4982869e-08
1.4539444e-08
1.4763509e-08
1.5811874e-08
1.564856e-08
1.5272808e-08
1.6376945e-08
2.4449345e-08
2.3046739e-08
2.1573499e-08
2.0067355e-08
1.8565685e-08
1.7108093e-08
1.5800405e-08
1.4630343e-08
1.4360298e-08
1.478718e-08
1.5691353e-08
1.519336e-08
1.4879044e-08
1.6053454e-08
2.4044291e-08
2.2627799e-08
2.1158028e-08
1.9664599e-08
1.8181333e-08
1.6746188e-08
1.548041e-08
1.4344839e-08
1.4231006e-08
1.4793657e-08
1.5536169e-08
1.4797901e-08
1.4489402e-08
1.5655584e-08
2.3740215e-08
2.2324355e-08
2.0860091e-08
1.9376789e-08
1.790578e-08
1.6482743e-08
1.5249035e-08
1.4120496e-08
1.4130436e-08
1.476709e-08
1.5369487e-08
1.4478691e-08
1.4216552e-08
1.523292e-08
2.3536416e-08
2.2125159e-08
2.0661019e-08
1.91797e-08
1.7709393e-08
1.6284458e-08
1.505055e-08
1.3933955e-08
1.4002036e-08
1.4666323e-08
1.5161549e-08
1.419444e-08
1.3984777e-08
1.4860142e-08
2.3427341e-08
2.201932e-08
2.054649e-08
1.905666e-08
1.7572651e-08
1.6127686e-08
1.4863617e-08
1.3729478e-08
1.3796076e-08
1.4456274e-08
1.4901758e-08
1.3922989e-08
1.3688296e-08
1.4508296e-08
2.3439439e-08
2.2037167e-08
2.0551453e-08
1.9045245e-08
1.7535477e-08
1.6052914e-08
1.472884e-08
1.3531771e-08
1.3533855e-08
1.416047e-08
1.4643265e-08
1.3734863e-08
1.3367575e-08
1.4040591e-08
2.3578165e-08
2.2181919e-08
2.0680242e-08
1.9151592e-08
1.7606519e-08
1.6072164e-08
1.4667407e-08
1.3349593e-08
1.3223663e-08
1.3766645e-08
1.4339821e-08
1.3609772e-08
1.2989946e-08
1.3535812e-08
2.3915239e-08
2.2539943e-08
2.1033396e-08
1.948569e-08
1.790421e-08
1.6315727e-08
1.4836712e-08
1.3383998e-08
1.3063084e-08
1.3490527e-08
1.4271222e-08
1.3790783e-08
1.3246154e-08
1.2925944e-08
2.4212184e-08
2.281557e-08
2.1258777e-08
1.9650698e-08
1.7993671e-08
1.630515e-08
1.4677317e-08
1.2998975e-08
1.2333029e-08
1.2462629e-08
1.3188042e-08
1.3188905e-08
1.1843042e-08
1.2644205e-08
2.4969902e-08
2.3690687e-08
2.2221557e-08
2.0667965e-08
1.9038553e-08
1.7357527e-08
1.5697498e-08
1.4101126e-08
1.3215225e-08
1.327633e-08
1.4476109e-08
1.535636e-08
1.4151743e-08
1.2966223e-08
2.486179e-08
2.3437894e-08
2.1692282e-08
1.9874922e-08
1.7986069e-08
1.6026758e-08
1.4031219e-08
1.1883304e-08
1.039999e-08
1.0077695e-08
1.0506293e-08
1.2069763e-08
1.1307625e-08
3.2970418e-08
2.7768215e-08
2.7767515e-08
2.7766272e-08
2.7763674e-08
2.7758333e-08
2.7747609e-08
2.7726745e-08
2.7687812e-08
2.7617798e-08
2.7502961e-08
2.7339992e-08
2.7139134e-08
2.6953133e-08
2.6806887e-08
2.7767066e-08
2.7764905e-08
2.7760515e-08
2.7750925e-08
2.7731292e-08
2.7693123e-08
2.7624258e-08
2.7508157e-08
2.7326202e-08
2.7063311e-08
2.6718167e-08
2.6319289e-08
2.5939341e-08
2.5646428e-08
2.776451e-08
2.775832e-08
2.7745451e-08
2.7718255e-08
2.7665739e-08
2.7571794e-08
2.74166e-08
2.7179136e-08
2.6842561e-08
2.6405593e-08
2.5899576e-08
2.5398489e-08
2.4943546e-08
2.4475151e-08
2.7758279e-08
2.7741795e-08
2.7708911e-08
2.7643504e-08
2.7526134e-08
2.7333046e-08
2.7040623e-08
2.663142e-08
2.6104209e-08
2.5487383e-08
2.4853929e-08
2.4244046e-08
2.3634204e-08
2.3029594e-08
2.7744933e-08
2.7706982e-08
2.7636534e-08
2.7506082e-08
2.728923e-08
2.6958623e-08
2.6494908e-08
2.5893786e-08
2.5176233e-08
2.4400832e-08
2.3616002e-08
2.2863921e-08
2.2186772e-08
2.1367551e-08
2.7646977e-08
2.7524546e-08
2.7310217e-08
2.6978168e-08
2.6503014e-08
2.5872348e-08
2.5088501e-08
2.4183969e-08
2.321391e-08
2.2239917e-08
2.1429622e-08
2.0588534e-08
1.9514576e-08
2.7571854e-08
2.7396823e-08
2.7108767e-08
2.6687469e-08
2.6108197e-08
2.535112e-08
2.4404737e-08
2.3309647e-08
2.2086958e-08
2.0982477e-08
1.9985072e-08
1.8872509e-08
1.7502201e-08
2.7509566e-08
2.7308185e-08
2.6997436e-08
2.6563319e-08
2.5972434e-08
2.5177285e-08
2.412954e-08
2.284076e-08
2.1430433e-08
2.0044155e-08
1.8683259e-08
1.713337e-08
1.5433594e-08
2.7306204e-08
2.7066448e-08
2.673834e-08
2.6292234e-08
2.5641296e-08
2.4671647e-08
2.3321195e-08
2.1700403e-08
1.9891326e-08
1.7932478e-08
1.5735974e-08
1.3718774e-08
2.7427062e-08
2.7326197e-08
2.7224904e-08
2.7104595e-08
2.6863801e-08
2.6317562e-08
2.5267279e-08
2.370745e-08
2.1508655e-08
1.8679913e-08
1.5640186e-08
1.3131638e-08
2.7597825e-08
2.7647154e-08
2.7797472e-08
2.805845e-08
2.8345937e-08
2.852059e-08
2.8375101e-08
2.7656531e-08
2.6288913e-08
2.3751502e-08
1.8326276e-08
1.4508713e-08
2.7814863e-08
2.8060316e-08
2.8448332e-08
2.8968646e-08
2.9602624e-08
3.0519629e-08
3.1687294e-08
3.2607044e-08
3.1710042e-08
2.901026e-08
2.2539987e-08
2.7808319e-08
2.7954175e-08
2.8164586e-08
2.8349099e-08
2.8323726e-08
2.8314713e-08
2.8689601e-08
2.949402e-08
3.2997444e-08
3.6937597e-08
3.3351781e-08
2.7782705e-08
2.7829107e-08
2.7803168e-08
2.7294309e-08
2.5490826e-08
2.1523052e-08
1.5154141e-08
8.9948707e-09
7.0122071e-09
1.1871845e-08
2.517281e-08
7.7017047e-09
4.9642398e-09
4.4016897e-09
5.8809875e-09
1.0687005e-08
1.7624213e-08
2.3411392e-08
2.630255e-08
2.7378926e-08
2.7644115e-08
6.3552347e-09
5.4436196e-09
5.059995e-09
6.3545804e-09
1.0602686e-08
1.7030268e-08
2.2934286e-08
2.6153171e-08
2.7314986e-08
2.7653661e-08
6.6985419e-09
5.8568351e-09
5.0972453e-09
6.3809547e-09
1.0414623e-08
1.6608222e-08
2.2483806e-08
2.596534e-08
2.7224342e-08
2.7634592e-08
6.6990494e-09
6.1103526e-09
5.5835211e-09
6.7564843e-09
1.0263271e-08
1.6054423e-08
2.1944742e-08
2.5702686e-08
2.7166632e-08
2.7621392e-08
2.7723996e-08
6.8306724e-09
6.4864798e-09
5.6737137e-09
6.9162471e-09
1.0305172e-08
1.5702846e-08
2.1424396e-08
2.5367363e-08
2.7073079e-08
2.760014e-08
2.7738884e-08
6.9929947e-09
6.7388541e-09
6.0725281e-09
7.2132561e-09
1.0280049e-08
1.5265545e-08
2.0849579e-08
2.4971898e-08
2.6960202e-08
2.7563775e-08
2.7733293e-08
6.9915677e-09
7.0082413e-09
6.1751395e-09
7.4873654e-09
1.0517805e-08
1.5034043e-08
2.0293901e-08
2.4502361e-08
2.6746907e-08
2.7524917e-08
2.773493e-08
7.0359277e-09
7.28464e-09
6.4881756e-09
7.7506011e-09
1.0644976e-08
1.4837291e-08
1.9769454e-08
2.3995478e-08
2.6463457e-08
2.7451465e-08
2.7721382e-08
6.9306211e-09
7.4779664e-09
6.594702e-09
8.0618264e-09
1.0926122e-08
1.4765103e-08
1.9303873e-08
2.3477077e-08
2.6139989e-08
2.7325149e-08
2.7699926e-08
6.8462306e-09
7.7830812e-09
6.8458853e-09
8.2975127e-09
1.1151674e-08
1.4756185e-08
1.8912293e-08
2.2947326e-08
2.5761803e-08
2.7154168e-08
2.7651803e-08
6.6856274e-09
7.9359666e-09
6.930112e-09
8.5869146e-09
1.1470187e-08
1.4819537e-08
1.8600504e-08
2.2456362e-08
2.5360569e-08
2.6942705e-08
2.7577161e-08
6.5470921e-09
8.2642907e-09
7.1521038e-09
8.8273706e-09
1.1799303e-08
1.4995394e-08
1.8373286e-08
2.2004728e-08
2.4942826e-08
2.6691829e-08
2.7473943e-08
6.4126059e-09
8.467178e-09
7.259472e-09
9.1172617e-09
1.2142761e-08
1.5258876e-08
1.8281938e-08
2.1667587e-08
2.4573083e-08
2.6433926e-08
2.7351605e-08
6.3943306e-09
8.9192129e-09
7.5474087e-09
9.4434686e-09
1.2575447e-08
1.5673905e-08
1.8385341e-08
2.1504652e-08
2.4316273e-08
2.6220051e-08
2.7232628e-08
3.2748743e-08
2.547651e-08
2.8730106e-08
2.7773067e-08
2.7775719e-08
2.7771439e-08
2.7771658e-08
2.7771821e-08
2.777193e-08
2.7772008e-08
2.7772064e-08
2.7772107e-08
2.777214e-08
2.7772166e-08
3.5891204e-08
2.5579506e-08
2.8587565e-08
2.7765988e-08
2.7775552e-08
2.7771453e-08
2.7771665e-08
2.7771822e-08
2.7771931e-08
2.7772008e-08
2.7772064e-08
2.7772106e-08
2.7772139e-08
2.7772165e-08
3.8889742e-08
2.5730797e-08
2.8346441e-08
2.7757005e-08
2.7775019e-08
2.7771444e-08
2.7771675e-08
2.7771826e-08
2.7771933e-08
2.7772009e-08
2.7772064e-08
2.7772106e-08
2.7772139e-08
2.7772164e-08
3.8573576e-08
2.6122712e-08
2.8139138e-08
2.7753101e-08
2.7774157e-08
2.7771423e-08
2.7771685e-08
2.7771832e-08
2.7771937e-08
2.7772012e-08
2.7772066e-08
2.7772108e-08
2.777214e-08
2.7772165e-08
3.6470144e-08
2.6612401e-08
2.8002004e-08
2.7754057e-08
2.7773273e-08
2.7771421e-08
2.7771698e-08
2.7771841e-08
2.7771942e-08
2.7772013e-08
2.7772067e-08
2.7772108e-08
2.777214e-08
2.7772165e-08
3.3573647e-08
2.7066528e-08
2.7914815e-08
2.7757611e-08
2.7772568e-08
2.7771432e-08
2.7771707e-08
2.7771846e-08
2.7771946e-08
2.777202e-08
2.7772072e-08
2.7772112e-08
2.7772143e-08
2.7772167e-08
3.1010549e-08
2.7377419e-08
2.785637e-08
2.7761658e-08
2.7772061e-08
2.777148e-08
2.777173e-08
2.7771862e-08
2.7771956e-08
2.7772019e-08
2.7772071e-08
2.777211e-08
2.7772141e-08
2.7772166e-08
2.9317114e-08
2.7555645e-08
2.7818937e-08
2.7765085e-08
2.7771764e-08
2.7771504e-08
2.7771734e-08
2.7771864e-08
2.7771957e-08
2.8448013e-08
2.7654102e-08
2.7797357e-08
2.7767477e-08
2.777157e-08
2.8069105e-08
2.7707804e-08
2.5917166e-08
2.5538893e-08
2.5204445e-08
2.4945057e-08
2.4769308e-08
2.4682043e-08
2.470202e-08
2.4839251e-08
2.5115775e-08
2.5419788e-08
2.5927289e-08
2.6173539e-08
2.664963e-08
2.636152e-08
2.6093355e-08
2.5869586e-08
2.5703046e-08
2.5605686e-08
2.5595762e-08
2.5684524e-08
2.587273e-08
2.6105736e-08
2.6446032e-08
2.6613898e-08
2.7162325e-08
2.6966257e-08
2.6771964e-08
2.6597921e-08
2.6456803e-08
2.6362891e-08
2.6334334e-08
2.6381569e-08
2.6501162e-08
2.6659942e-08
2.6884287e-08
2.6965746e-08
2.7580581e-08
2.7477965e-08
2.7361374e-08
2.723703e-08
2.7116741e-08
2.7010522e-08
2.6931117e-08
2.6894403e-08
2.6909804e-08
2.6975342e-08
2.7070052e-08
2.7206488e-08
2.7245863e-08
2.7692222e-08
2.7644358e-08
2.7584307e-08
2.7514882e-08
2.7442004e-08
2.7372275e-08
2.7314918e-08
2.7281647e-08
2.72801e-08
2.7310149e-08
2.7360232e-08
2.743503e-08
2.7452957e-08
2.7750519e-08
2.7740818e-08
2.7720818e-08
2.7693734e-08
2.7659876e-08
2.762149e-08
2.7581722e-08
2.7546045e-08
2.7522073e-08
2.7515159e-08
2.752604e-08
2.7549192e-08
2.7585939e-08
2.7590978e-08
2.7762242e-08
2.775906e-08
2.7751699e-08
2.7740963e-08
2.7726463e-08
2.7708624e-08
2.7688743e-08
2.7669488e-08
2.7654862e-08
2.7648218e-08
2.7650424e-08
2.7659319e-08
2.7674859e-08
2.7673824e-08
2.7766254e-08
2.7765101e-08
2.776272e-08
2.7758966e-08
2.7753461e-08
2.774612e-08
2.7737267e-08
2.7728001e-08
2.7720263e-08
2.7715619e-08
2.7714884e-08
2.7717353e-08
2.7722707e-08
2.7719932e-08
2.7767658e-08
2.7767159e-08
2.7766296e-08
2.7765055e-08
2.7763218e-08
2.7760506e-08
2.7756991e-08
2.7752981e-08
2.7749246e-08
2.7746631e-08
2.7745442e-08
2.7745658e-08
2.7746903e-08
2.7744423e-08
2.7768278e-08
2.7767997e-08
2.7767612e-08
2.7767108e-08
2.7766427e-08
2.7765531e-08
2.7764259e-08
2.776271e-08
2.7761084e-08
2.7759717e-08
2.7758906e-08
2.77586e-08
2.7758585e-08
2.7756916e-08
2.7768625e-08
2.7768444e-08
2.7768219e-08
2.7767949e-08
2.7767635e-08
2.7767229e-08
2.7766801e-08
2.776623e-08
2.7765599e-08
2.7764971e-08
2.7764485e-08
2.7764234e-08
2.7763996e-08
2.7763068e-08
2.7768968e-08
2.776877e-08
2.7768591e-08
2.7768421e-08
2.776823e-08
2.7768011e-08
2.7767758e-08
2.7767564e-08
2.7767324e-08
2.7767065e-08
2.7766819e-08
2.776667e-08
2.776652e-08
2.7766064e-08
2.7769226e-08
2.776906e-08
2.7768884e-08
2.7768712e-08
2.7768576e-08
2.7768436e-08
2.7768279e-08
2.7768113e-08
2.7768014e-08
2.7767919e-08
2.7767813e-08
2.776773e-08
2.7767656e-08
2.776749e-08
2.7769469e-08
2.7769329e-08
2.7769186e-08
2.776904e-08
2.7768896e-08
2.7768779e-08
2.7768671e-08
2.7768565e-08
2.7768469e-08
2.7768413e-08
2.7768378e-08
2.7768353e-08
2.7768326e-08
2.7768256e-08
2.7772294e-08
2.7772316e-08
2.7772319e-08
2.7772321e-08
2.7772294e-08
2.7772316e-08
2.7772319e-08
2.7772294e-08
2.7772316e-08
2.7772295e-08
2.7772294e-08
2.777231e-08
2.777231e-08
2.777231e-08
2.777231e-08
2.777231e-08
2.777231e-08
2.777231e-08
2.777231e-08
2.7772311e-08
2.777231e-08
2.7772311e-08
2.7772311e-08
2.777231e-08
2.7772318e-08
2.7772322e-08
2.7772322e-08
2.7772322e-08
2.7772322e-08
2.7772322e-08
2.7772322e-08
2.7772322e-08
2.7772322e-08
2.7772322e-08
2.7772322e-08
2.7772322e-08
2.7772322e-08
2.7772322e-08
2.7772321e-08
2.7772321e-08
2.7772321e-08
2.7772321e-08
2.7772321e-08
2.7772321e-08
2.7772321e-08
2.777232e-08
2.7772321e-08
2.777232e-08
2.777232e-08
2.7772318e-08
2.777232e-08
2.7772318e-08
2.7772318e-08
2.7772318e-08
2.7772318e-08
2.7772311e-08
7.1613914e-08
2.7527488e-08
2.8632432e-08
2.7772515e-08
2.7771256e-08
2.7771394e-08
2.7771657e-08
2.7771824e-08
2.7771935e-08
2.7772013e-08
2.777207e-08
2.7772113e-08
2.7772145e-08
2.7772171e-08
5.9083952e-08
2.7623751e-08
2.831704e-08
2.7772489e-08
2.7771385e-08
2.7771535e-08
2.7771754e-08
2.7771889e-08
2.7771982e-08
2.7772049e-08
2.7772099e-08
2.7772136e-08
2.7772165e-08
2.7772188e-08
5.4021013e-08
2.7633472e-08
2.8141644e-08
2.7772152e-08
2.7771467e-08
2.7771663e-08
2.7771847e-08
2.7771965e-08
2.777204e-08
2.7772093e-08
2.7772134e-08
2.7772165e-08
2.7772189e-08
2.7772207e-08
5.0222239e-08
2.7671749e-08
2.8029505e-08
2.7772079e-08
2.777156e-08
2.7771757e-08
2.7771914e-08
2.7772015e-08
2.7772081e-08
2.7772127e-08
2.7772161e-08
2.7772188e-08
2.7772208e-08
2.7772224e-08
2.7772322e-08
2.7772322e-08
2.7772322e-08
2.7772322e-08
2.7772322e-08
2.7772322e-08
2.7772322e-08
2.7772322e-08
2.7772322e-08
2.7772322e-08
2.7772322e-08
2.7772322e-08
2.7772322e-08
2.7772322e-08
2.7772322e-08
2.7772322e-08
2.7772322e-08
2.7772322e-08
2.7772322e-08
2.7772322e-08
2.7772322e-08
2.7772322e-08
2.7772322e-08
2.7772321e-08
2.7772321e-08
2.7772321e-08
2.7772322e-08
2.7772322e-08
2.7772322e-08
2.7772322e-08
2.7772322e-08
2.7772322e-08
2.7772322e-08
2.7772322e-08
2.7772321e-08
2.7772321e-08
2.7772321e-08
2.7772319e-08
2.7772316e-08
2.7772297e-08
2.7772322e-08
2.7772322e-08
2.7772322e-08
2.7772322e-08
2.7772322e-08
2.7772322e-08
2.7772322e-08
2.7772322e-08
2.7772321e-08
2.7772321e-08
2.7772321e-08
2.7772319e-08
2.7772316e-08
2.7772296e-08
2.7772322e-08
2.7772322e-08
2.7772322e-08
2.7772322e-08
2.7772322e-08
2.7772321e-08
2.7772321e-08
2.7772321e-08
2.7772319e-08
2.7772316e-08
2.7772294e-08
2.7772322e-08
2.7772321e-08
2.7772321e-08
2.7772321e-08
2.7772319e-08
2.7772316e-08
2.7772293e-08
)
;

boundaryField
{
    Side
    {
        type            empty;
    }
    Inlet
    {
        type            inletOutlet;
        inletValue      uniform 3.9592226e-07;
        value           nonuniform List<scalar> 7(2.7772322e-08 3.9592226e-07 3.9592226e-07 3.9592226e-07 3.9592226e-07 3.9592226e-07 3.9592226e-07);
    }
    Airfoil
    {
        type            nutUSpaldingWallFunction;
        value           nonuniform List<scalar> 0();
    }
    Outlet
    {
        type            zeroGradient;
    }
    Flap
    {
        type            nutUSpaldingWallFunction;
        value           nonuniform List<scalar> 
30
(
1.3125687e-06
1.282622e-06
1.2602296e-06
1.2451613e-06
1.2357347e-06
1.2311867e-06
1.2333267e-06
1.243134e-06
1.2623206e-06
1.2571174e-06
1.2529047e-06
7.4197131e-07
1.6354057e-06
1.7908087e-06
1.8947343e-06
1.9820572e-06
2.0560242e-06
2.1209049e-06
2.1792266e-06
2.2326325e-06
2.2821089e-06
2.3289475e-06
2.3758237e-06
2.4252581e-06
2.4749379e-06
2.5138714e-06
6.8462449e-06
7.2196059e-06
7.9429228e-06
8.6196395e-06
)
;
    }
    procBoundary4to3
    {
        type            processor;
        value           nonuniform List<scalar> 
142
(
2.7770393e-08
2.7770591e-08
2.7770591e-08
2.7770437e-08
2.777029e-08
2.7770132e-08
2.7769972e-08
2.7769786e-08
2.7769574e-08
2.7769335e-08
2.7769062e-08
2.7768749e-08
2.7768355e-08
2.7767768e-08
2.7766598e-08
2.7762958e-08
2.7762958e-08
2.7772251e-08
2.7772251e-08
2.7772235e-08
2.7772235e-08
2.7772235e-08
2.7772212e-08
2.7772212e-08
2.7772177e-08
2.7772178e-08
2.7772178e-08
2.7772125e-08
2.7772127e-08
2.7772127e-08
2.7772038e-08
2.7772042e-08
2.7772042e-08
2.7771873e-08
2.7771885e-08
2.7771885e-08
2.7771516e-08
2.7771516e-08
2.7770321e-08
2.7772288e-08
2.7772292e-08
2.7772288e-08
2.7772292e-08
2.7772292e-08
2.7772291e-08
2.7772291e-08
2.7772282e-08
2.7772288e-08
2.7772282e-08
2.7772274e-08
2.7772282e-08
2.7772274e-08
2.7772264e-08
2.7772274e-08
2.7772265e-08
2.7772252e-08
2.7772264e-08
2.7772251e-08
2.7770779e-08
2.7770871e-08
2.7770997e-08
2.7771069e-08
2.7771069e-08
2.541526e-08
2.410647e-08
2.2655367e-08
2.1134201e-08
1.9594016e-08
1.8075501e-08
1.6661412e-08
1.5383725e-08
1.4829855e-08
1.4816251e-08
1.5969443e-08
1.6098908e-08
1.5559218e-08
1.6830302e-08
2.6299053e-08
2.6929169e-08
2.7339406e-08
2.7339406e-08
2.763074e-08
2.7715637e-08
2.7715637e-08
2.7772291e-08
2.7772322e-08
2.7772322e-08
2.7772322e-08
2.7772322e-08
2.7772322e-08
2.7772322e-08
2.7772322e-08
2.7772322e-08
2.7772322e-08
2.7772322e-08
2.7772321e-08
2.7772321e-08
2.7772321e-08
2.7772321e-08
2.7772321e-08
2.777232e-08
2.777232e-08
2.7772318e-08
2.7772318e-08
2.7772318e-08
2.777231e-08
2.777231e-08
2.777231e-08
2.777231e-08
2.777231e-08
4.7253416e-08
2.7706638e-08
2.7957202e-08
2.7772032e-08
2.7771637e-08
2.7771825e-08
2.7771963e-08
2.7772052e-08
2.7772112e-08
2.7772152e-08
2.7772182e-08
2.7772205e-08
2.7772223e-08
2.7772237e-08
2.7772322e-08
2.7772322e-08
2.7772322e-08
2.7772322e-08
2.7772322e-08
2.7772322e-08
2.7772322e-08
2.7772322e-08
2.7772322e-08
2.7772322e-08
2.7772321e-08
2.7772321e-08
2.7772321e-08
2.7772321e-08
2.7772319e-08
2.7772319e-08
2.7772316e-08
2.7772299e-08
)
;
    }
    procBoundary4to5
    {
        type            processor;
        value           nonuniform List<scalar> 
189
(
2.7772022e-08
2.7772011e-08
2.7772e-08
2.7771988e-08
2.7771976e-08
2.7771963e-08
2.7771949e-08
2.7771935e-08
2.7771916e-08
2.7771899e-08
2.777188e-08
2.7771861e-08
2.7771841e-08
2.7771821e-08
2.7772311e-08
2.7772311e-08
2.7772311e-08
2.7772311e-08
2.7772294e-08
2.7772311e-08
2.7772294e-08
2.7772295e-08
2.777229e-08
2.777229e-08
2.7772291e-08
2.7772286e-08
2.7772286e-08
2.7772287e-08
2.7772281e-08
2.7772281e-08
2.7772273e-08
2.7772273e-08
2.7772274e-08
2.7772264e-08
2.7772311e-08
2.7772264e-08
2.7772265e-08
2.7772266e-08
2.7772267e-08
2.7772267e-08
2.7772255e-08
2.7772255e-08
2.7772257e-08
2.7772258e-08
2.7772259e-08
2.7772244e-08
2.7772244e-08
2.7772246e-08
2.7772247e-08
2.7772249e-08
2.777225e-08
2.7772236e-08
2.7772079e-08
2.777215e-08
2.7772172e-08
2.7772172e-08
2.7772192e-08
2.7772192e-08
2.7772222e-08
2.7772236e-08
2.7770928e-08
2.7770933e-08
2.7770979e-08
2.7769868e-08
2.7771052e-08
2.7769868e-08
2.7771502e-08
2.7771502e-08
2.7771486e-08
2.7771482e-08
2.7770928e-08
2.7771495e-08
2.7771802e-08
2.7771797e-08
2.7771788e-08
2.7771502e-08
2.7771785e-08
2.7769889e-08
2.7769705e-08
2.7769476e-08
2.7769095e-08
2.7723637e-08
2.7768365e-08
2.7723637e-08
2.7692302e-08
2.7661496e-08
2.7507951e-08
2.7507951e-08
2.755455e-08
2.7634248e-08
2.7721272e-08
2.7721272e-08
2.7754209e-08
2.7764227e-08
2.7691721e-08
2.7691721e-08
2.7711088e-08
2.771036e-08
2.771036e-08
2.7748625e-08
2.7757734e-08
2.7762995e-08
2.7771427e-08
2.7774449e-08
2.7775588e-08
2.7769375e-08
2.7754401e-08
2.772551e-08
2.7684547e-08
2.7636382e-08
2.7898588e-08
2.7772295e-08
2.7772027e-08
2.7772077e-08
2.7772115e-08
2.7772145e-08
2.7772169e-08
2.7772295e-08
2.7771554e-08
2.7771757e-08
2.777188e-08
2.7772027e-08
2.7771968e-08
2.778486e-08
2.7769153e-08
2.7771554e-08
2.7771489e-08
2.7898588e-08
2.778486e-08
2.7739185e-08
2.7772321e-08
2.7772321e-08
2.7772321e-08
2.7772321e-08
2.7772322e-08
2.7772321e-08
2.7772319e-08
2.7772319e-08
2.7772316e-08
2.7772316e-08
2.7772316e-08
2.7772295e-08
2.7772318e-08
2.7772318e-08
2.7772318e-08
2.7772318e-08
2.7772318e-08
2.7772318e-08
2.7772318e-08
2.7772318e-08
2.7772318e-08
2.7772318e-08
2.7772318e-08
2.7772311e-08
2.7772318e-08
2.7772318e-08
2.777232e-08
2.7772322e-08
2.7772322e-08
2.7772322e-08
2.7772322e-08
2.7772322e-08
2.7772322e-08
2.7772322e-08
2.7772322e-08
2.7772322e-08
2.7772322e-08
2.7772322e-08
2.7772322e-08
2.7772322e-08
2.7772322e-08
2.7772321e-08
2.7772321e-08
2.7772321e-08
2.7772321e-08
2.7772321e-08
2.777232e-08
2.777232e-08
2.777232e-08
2.777232e-08
2.7772322e-08
2.7772322e-08
2.7772322e-08
2.7772322e-08
2.7772322e-08
2.7772322e-08
2.7772322e-08
2.7772322e-08
2.7772322e-08
)
;
    }
}


// ************************************************************************* //
