/*--------------------------------*- C++ -*----------------------------------*\
| =========                 |                                                 |
| \\      /  F ield         | OpenFOAM: The Open Source CFD Toolbox           |
|  \\    /   O peration     | Version:  2206                                  |
|   \\  /    A nd           | Website:  www.openfoam.com                      |
|    \\/     M anipulation  |                                                 |
\*---------------------------------------------------------------------------*/
FoamFile
{
    version     2.0;
    format      ascii;
    arch        "LSB;label=32;scalar=64";
    class       volScalarField;
    location    "0.01";
    object      nuTilda;
}
// * * * * * * * * * * * * * * * * * * * * * * * * * * * * * * * * * * * * * //

dimensions      [0 2 -1 0 0 0 0];

internalField   nonuniform List<scalar> 
1396
(
3.9591968e-07
3.9591951e-07
3.9591932e-07
3.9591912e-07
3.959189e-07
3.9591866e-07
3.9591839e-07
3.959181e-07
3.9591777e-07
3.9591734e-07
3.959169e-07
3.9591639e-07
3.9591582e-07
3.9591519e-07
3.9592033e-07
3.9592023e-07
3.9592013e-07
3.9592001e-07
3.9591986e-07
3.9591972e-07
3.9591957e-07
3.959194e-07
3.9591922e-07
3.9591901e-07
3.959188e-07
3.9591856e-07
3.9591829e-07
3.9591796e-07
3.959208e-07
3.9592072e-07
3.9592066e-07
3.9592058e-07
3.9592051e-07
3.9592042e-07
3.9592034e-07
3.9592024e-07
3.9592014e-07
3.9592004e-07
3.9591989e-07
3.9591976e-07
3.9591962e-07
3.9591947e-07
3.9591649e-07
3.9591597e-07
3.9591547e-07
3.9591494e-07
3.9591439e-07
3.9591377e-07
3.9591304e-07
3.9591221e-07
3.9591126e-07
3.9591017e-07
3.9590901e-07
3.959075e-07
3.9590518e-07
3.9589955e-07
3.9591705e-07
3.9591659e-07
3.9591615e-07
3.9591567e-07
3.9591515e-07
3.9591456e-07
3.9591392e-07
3.9591321e-07
3.9591241e-07
3.959115e-07
3.9591037e-07
3.9590909e-07
3.9590749e-07
3.9590483e-07
3.9591753e-07
3.9591711e-07
3.9591669e-07
3.9591627e-07
3.9591582e-07
3.9591532e-07
3.9591472e-07
3.9591406e-07
3.959133e-07
3.9591248e-07
3.9591145e-07
3.9591026e-07
3.9590884e-07
3.9590702e-07
3.9591793e-07
3.9591757e-07
3.9591722e-07
3.9591682e-07
3.959164e-07
3.9591593e-07
3.9591538e-07
3.9591477e-07
3.9591408e-07
3.9591328e-07
3.9591231e-07
3.9591125e-07
3.9591003e-07
3.959086e-07
3.9591834e-07
3.9591797e-07
3.9591764e-07
3.9591728e-07
3.9591688e-07
3.9591646e-07
3.9591594e-07
3.9591537e-07
3.9591471e-07
3.9591402e-07
3.9591319e-07
3.9591221e-07
3.9591107e-07
3.9590978e-07
3.9591868e-07
3.9591834e-07
3.9591804e-07
3.9591771e-07
3.9591734e-07
3.9591692e-07
3.9591648e-07
3.9591598e-07
3.9591541e-07
3.9591472e-07
3.9591396e-07
3.9591304e-07
3.9591197e-07
3.9591073e-07
3.9591891e-07
3.9591861e-07
3.9591832e-07
3.9591801e-07
3.9591769e-07
3.9591734e-07
3.959169e-07
3.9591643e-07
3.959159e-07
3.9591525e-07
3.9591452e-07
3.9591366e-07
3.9591266e-07
3.9591158e-07
3.9591925e-07
3.9591898e-07
3.9591872e-07
3.9591846e-07
3.9591814e-07
3.959178e-07
3.959174e-07
3.9591696e-07
3.9591647e-07
3.9591588e-07
3.9591522e-07
3.9591445e-07
3.9591357e-07
3.959125e-07
3.9592215e-07
3.9592215e-07
3.9592215e-07
3.9592215e-07
3.9592215e-07
3.9592213e-07
3.9592213e-07
3.9592213e-07
3.9592214e-07
3.9592214e-07
3.9592214e-07
3.9592214e-07
3.9592211e-07
3.9592211e-07
3.9592211e-07
3.9592211e-07
3.9592212e-07
3.9592212e-07
3.9592212e-07
3.9592212e-07
3.9592212e-07
3.9592208e-07
3.9592208e-07
3.9592208e-07
3.9592209e-07
3.9592209e-07
3.9592209e-07
3.9592209e-07
3.9592209e-07
3.959221e-07
3.959221e-07
3.959221e-07
3.9592204e-07
3.9592205e-07
3.9592205e-07
3.9592205e-07
3.9592205e-07
3.9592206e-07
3.9592206e-07
3.9592206e-07
3.9592206e-07
3.9592207e-07
3.9592207e-07
3.9592207e-07
3.95922e-07
3.95922e-07
3.95922e-07
3.9592201e-07
3.9592201e-07
3.9592201e-07
3.9592202e-07
3.9592202e-07
3.9592202e-07
3.9592203e-07
3.9592203e-07
3.9592203e-07
3.9592204e-07
3.9592194e-07
3.9592194e-07
3.9592195e-07
3.9592195e-07
3.9592195e-07
3.9592196e-07
3.9592196e-07
3.9592197e-07
3.9592197e-07
3.9592198e-07
3.9592198e-07
3.9592185e-07
3.9592185e-07
3.9592186e-07
3.9592187e-07
3.9592187e-07
3.9592188e-07
3.9592189e-07
3.9592189e-07
3.959219e-07
3.959219e-07
3.9592173e-07
3.9592173e-07
3.9592174e-07
3.9592175e-07
3.9592176e-07
3.9592177e-07
3.9592178e-07
3.9592179e-07
3.9592154e-07
3.9592155e-07
3.9592157e-07
3.9592158e-07
3.959216e-07
3.959216e-07
3.9592123e-07
3.9592125e-07
3.9592127e-07
3.9592129e-07
3.9592068e-07
3.9592069e-07
3.9591927e-07
3.9592215e-07
3.9592215e-07
3.9592215e-07
3.9592215e-07
3.9592215e-07
3.9592215e-07
3.9592215e-07
3.9592215e-07
3.9592215e-07
3.9592215e-07
3.9592213e-07
3.9592213e-07
3.9592213e-07
3.9592213e-07
3.9592213e-07
3.9592213e-07
3.9592213e-07
3.9592213e-07
3.9592211e-07
3.9592211e-07
3.9592211e-07
3.9592211e-07
3.9592211e-07
3.9592211e-07
3.9592208e-07
3.9592208e-07
3.9592208e-07
3.9592208e-07
3.9592204e-07
3.9592204e-07
3.9591969e-07
3.9592083e-07
3.9592136e-07
3.9592164e-07
3.9592181e-07
3.9592191e-07
3.9592199e-07
3.9591984e-07
3.9592088e-07
3.9592138e-07
3.9592165e-07
3.9592182e-07
3.9592192e-07
3.9592199e-07
3.9591996e-07
3.9592093e-07
3.9592141e-07
3.9592167e-07
3.9592182e-07
3.9592193e-07
3.95922e-07
3.9592008e-07
3.9592099e-07
3.9592143e-07
3.9592168e-07
3.9592183e-07
3.9592193e-07
3.95922e-07
3.9591794e-07
3.9592021e-07
3.9592105e-07
3.9592146e-07
3.959217e-07
3.9592184e-07
3.9592194e-07
3.95922e-07
3.959183e-07
3.9592032e-07
3.959211e-07
3.9592149e-07
3.9592171e-07
3.9592185e-07
3.9592194e-07
3.9591862e-07
3.9592043e-07
3.9592114e-07
3.9592151e-07
3.9592173e-07
3.9592186e-07
3.9592195e-07
3.9591888e-07
3.9592053e-07
3.9592119e-07
3.9592154e-07
3.9592174e-07
3.9592187e-07
3.9592196e-07
3.9591913e-07
3.9592062e-07
3.9592123e-07
3.9592156e-07
3.9592175e-07
3.9592188e-07
3.9592196e-07
3.9591937e-07
3.959207e-07
3.9592128e-07
3.9592158e-07
3.9592177e-07
3.9592189e-07
3.9591956e-07
3.9592078e-07
3.9592131e-07
3.959216e-07
3.9592178e-07
3.959219e-07
3.9591977e-07
3.9592086e-07
3.9592135e-07
3.9592163e-07
3.9592179e-07
3.959219e-07
3.9591988e-07
3.9592091e-07
3.9592138e-07
3.9592164e-07
3.959218e-07
3.9592191e-07
3.9592011e-07
3.95921e-07
3.9592143e-07
3.9592167e-07
3.9592182e-07
3.9592192e-07
3.9592039e-07
3.959208e-07
3.9592112e-07
3.9592112e-07
3.9592132e-07
3.9592148e-07
3.9592149e-07
3.9592159e-07
3.959217e-07
3.9592184e-07
3.959147e-07
3.9591433e-07
3.9591399e-07
3.9591372e-07
3.9591353e-07
3.959132e-07
3.9591298e-07
3.9591285e-07
3.9591278e-07
3.9591264e-07
3.9591264e-07
3.9591269e-07
3.9591271e-07
3.959177e-07
3.9591758e-07
3.9591748e-07
3.9591734e-07
3.9591725e-07
3.9591719e-07
3.959171e-07
3.9591705e-07
3.9591708e-07
3.9591936e-07
3.9591929e-07
3.9591925e-07
3.9591921e-07
3.8874743e-07
3.8755854e-07
3.8722494e-07
3.8739194e-07
3.8783057e-07
3.8856655e-07
3.8984797e-07
3.9144931e-07
3.9490064e-07
4.0095249e-07
4.0203658e-07
3.951852e-07
3.9610458e-07
4.4019797e-07
3.880344e-07
3.8713569e-07
3.8700775e-07
3.8726984e-07
3.8777756e-07
3.8859521e-07
3.9002117e-07
3.9169994e-07
3.9596226e-07
4.0180399e-07
4.0196341e-07
3.9397171e-07
3.9579607e-07
4.4132864e-07
3.8748581e-07
3.8681259e-07
3.8682712e-07
3.8715692e-07
3.8772318e-07
3.8860539e-07
3.9017267e-07
3.9192893e-07
3.9686134e-07
4.023794e-07
4.0172557e-07
3.9313354e-07
3.9523745e-07
4.4124694e-07
3.8706823e-07
3.8655605e-07
3.8665681e-07
3.8702881e-07
3.8763656e-07
3.8856109e-07
3.9029432e-07
3.9204277e-07
3.9749458e-07
4.0274932e-07
4.0145586e-07
3.9256161e-07
3.9509415e-07
4.4079093e-07
3.8676067e-07
3.8635289e-07
3.8649966e-07
3.8689798e-07
3.8753298e-07
3.8848626e-07
3.9024116e-07
3.9219518e-07
3.9790687e-07
4.0302137e-07
4.0129598e-07
3.9228133e-07
3.9535329e-07
4.4130449e-07
3.865372e-07
3.8618126e-07
3.8634072e-07
3.86753e-07
3.8740033e-07
3.8836376e-07
3.9007104e-07
3.9221866e-07
3.9810857e-07
4.0323828e-07
4.0142228e-07
3.9222709e-07
3.9549919e-07
4.4261347e-07
3.8638914e-07
3.8602766e-07
3.8616727e-07
3.8657347e-07
3.8721111e-07
3.8815594e-07
3.8975072e-07
3.9196457e-07
3.9799122e-07
4.0331696e-07
4.0191344e-07
3.924476e-07
3.9523157e-07
4.4281275e-07
3.8632039e-07
3.858771e-07
3.8596181e-07
3.863412e-07
3.8694489e-07
3.8784047e-07
3.8932804e-07
3.9126431e-07
3.9743143e-07
4.0309035e-07
4.0247809e-07
3.9289604e-07
3.9420732e-07
4.424891e-07
3.8644387e-07
3.8580734e-07
3.8578154e-07
3.8610712e-07
3.8666116e-07
3.875116e-07
3.8905964e-07
3.9039687e-07
3.9657131e-07
4.0291691e-07
4.0363376e-07
3.9428273e-07
3.9647293e-07
4.4049334e-07
3.8663907e-07
3.8575199e-07
3.8560028e-07
3.8587208e-07
3.8637221e-07
3.8713468e-07
3.8849372e-07
3.8915163e-07
3.9489094e-07
4.01698e-07
4.0308403e-07
3.957369e-07
3.9234057e-07
4.4677298e-07
3.8754331e-07
3.8613949e-07
3.8563978e-07
3.8573435e-07
3.861389e-07
3.8687977e-07
3.8813114e-07
3.894621e-07
3.9386625e-07
4.0171207e-07
4.0478728e-07
3.9947644e-07
3.9595025e-07
4.3295515e-07
3.8738451e-07
3.8568726e-07
3.8504752e-07
3.8517471e-07
3.8552522e-07
3.8603883e-07
3.8693542e-07
3.8664396e-07
3.9191274e-07
3.9935242e-07
4.0512368e-07
4.048362e-07
4.2466727e-07
6.0399874e-07
3.959061e-07
3.9590242e-07
3.9589547e-07
3.9588096e-07
3.9585146e-07
3.9579334e-07
3.9568356e-07
3.9548836e-07
3.9515869e-07
3.9462112e-07
3.9383484e-07
3.9279896e-07
3.9161059e-07
3.9042688e-07
3.9589996e-07
3.9588826e-07
3.9586412e-07
3.958131e-07
3.9571041e-07
3.9551569e-07
3.951767e-07
3.9463294e-07
3.9383801e-07
3.927857e-07
3.9151821e-07
3.9012307e-07
3.8875311e-07
3.8770593e-07
3.9588472e-07
3.958495e-07
3.9577614e-07
3.9562681e-07
3.9535041e-07
3.9488229e-07
3.9416154e-07
3.9315719e-07
3.9189896e-07
3.9049775e-07
3.8913175e-07
3.8797386e-07
3.8681604e-07
3.8599006e-07
3.9584428e-07
3.9574571e-07
3.9555102e-07
3.9518662e-07
3.9457942e-07
3.9367246e-07
3.9245994e-07
3.9101776e-07
3.8952035e-07
3.8819597e-07
3.8718488e-07
3.8607565e-07
3.8517908e-07
3.8554396e-07
3.9574903e-07
3.9551221e-07
3.9508176e-07
3.9435386e-07
3.9328051e-07
3.9188615e-07
3.9030015e-07
3.8874208e-07
3.8745096e-07
3.8651507e-07
3.8546063e-07
3.8475648e-07
3.8505106e-07
3.8591949e-07
3.9508251e-07
3.9430761e-07
3.9312522e-07
3.9159967e-07
3.8990302e-07
3.8829343e-07
3.8699583e-07
3.8606611e-07
3.8511007e-07
3.8450882e-07
3.8498025e-07
3.8558924e-07
3.8669096e-07
3.9448061e-07
3.9332671e-07
3.9175564e-07
3.8999108e-07
3.8831866e-07
3.8698056e-07
3.8603113e-07
3.8532822e-07
3.8465367e-07
3.8517773e-07
3.8584991e-07
3.8645859e-07
3.8771319e-07
3.9385744e-07
3.9243078e-07
3.9068974e-07
3.889809e-07
3.87591e-07
3.8663329e-07
3.8602102e-07
3.8563897e-07
3.8597598e-07
3.867054e-07
3.8725904e-07
3.8775445e-07
3.8907929e-07
3.9193265e-07
3.9033887e-07
3.8893447e-07
3.8800364e-07
3.8754906e-07
3.8745491e-07
3.877679e-07
3.8847162e-07
3.8913996e-07
3.8953508e-07
3.8997442e-07
3.9188863e-07
3.9214677e-07
3.9089531e-07
3.8999236e-07
3.8968186e-07
3.8992946e-07
3.9055628e-07
3.9146249e-07
3.927022e-07
3.9337999e-07
3.9389938e-07
3.9518037e-07
3.9799202e-07
3.9294583e-07
3.9216589e-07
3.9187657e-07
3.9229967e-07
3.9332503e-07
3.9479784e-07
3.9655189e-07
3.9837245e-07
4.0017784e-07
4.020894e-07
4.0382612e-07
4.0567278e-07
3.9348923e-07
3.9363083e-07
3.9445265e-07
3.9582964e-07
3.973524e-07
3.9945779e-07
4.0268188e-07
4.0612511e-07
4.0852499e-07
4.0983162e-07
4.1107504e-07
3.9446614e-07
3.9457758e-07
3.9516385e-07
3.9589536e-07
3.960861e-07
3.9709159e-07
4.0129613e-07
4.052787e-07
4.0840983e-07
4.0914521e-07
4.0657635e-07
3.9518259e-07
3.951286e-07
3.9522055e-07
3.9498628e-07
3.9372353e-07
3.9117739e-07
3.8464892e-07
3.7275054e-07
3.75787e-07
4.1257709e-07
4.2410803e-07
5.5310743e-07
4.1521165e-07
3.5191212e-07
3.4221344e-07
3.6693375e-07
3.8673118e-07
3.9378925e-07
3.9522146e-07
3.9551141e-07
3.9551673e-07
5.0845868e-07
4.1395674e-07
3.5900261e-07
3.4688681e-07
3.6741186e-07
3.8679836e-07
3.9427885e-07
3.9564489e-07
3.9568191e-07
3.9566615e-07
5.1122327e-07
4.1743142e-07
3.5777305e-07
3.4664068e-07
3.6688629e-07
3.8729885e-07
3.9507526e-07
3.9620806e-07
3.9580492e-07
3.9576462e-07
5.0759866e-07
4.1667839e-07
3.6347039e-07
3.5067263e-07
3.6609099e-07
3.864368e-07
3.9541763e-07
3.9672295e-07
3.9617679e-07
3.9591096e-07
3.958477e-07
5.0895049e-07
4.1896726e-07
3.6316425e-07
3.520781e-07
3.6674484e-07
3.8620735e-07
3.9566814e-07
3.9716414e-07
3.9647432e-07
3.9608523e-07
3.9599362e-07
5.1233062e-07
4.1951076e-07
3.6784471e-07
3.5515168e-07
3.6640119e-07
3.8483572e-07
3.9535247e-07
3.9754576e-07
3.9690241e-07
3.9624305e-07
3.9606716e-07
5.138209e-07
4.2080023e-07
3.6809769e-07
3.5782051e-07
3.6806894e-07
3.8425274e-07
3.9474967e-07
3.9766233e-07
3.9720064e-07
3.9646239e-07
3.961936e-07
5.1712323e-07
4.2236117e-07
3.7152743e-07
3.6010195e-07
3.6835343e-07
3.8336091e-07
3.9388303e-07
3.9754422e-07
3.974446e-07
3.9671248e-07
3.9629688e-07
5.1838278e-07
4.2273347e-07
3.7197284e-07
3.6266721e-07
3.6969132e-07
3.8278508e-07
3.9287572e-07
3.9719899e-07
3.976015e-07
3.9692984e-07
3.9644355e-07
5.2063987e-07
4.2460414e-07
3.7455708e-07
3.6411219e-07
3.7034518e-07
3.8223145e-07
3.9182102e-07
3.9657387e-07
3.9753506e-07
3.970805e-07
3.9657938e-07
5.2202775e-07
4.2420362e-07
3.7493539e-07
3.6595842e-07
3.7167624e-07
3.8193807e-07
3.9081749e-07
3.9584174e-07
3.973054e-07
3.9713796e-07
3.9668953e-07
5.2417174e-07
4.2583981e-07
3.7720114e-07
3.6710009e-07
3.7298559e-07
3.8227728e-07
3.899829e-07
3.949335e-07
3.9684436e-07
3.9703328e-07
3.9673253e-07
5.2571682e-07
4.2517445e-07
3.7768747e-07
3.68542e-07
3.741796e-07
3.8298168e-07
3.8959347e-07
3.9413782e-07
3.9630409e-07
3.9680565e-07
3.9669652e-07
5.2712273e-07
4.2688738e-07
3.7988689e-07
3.6997569e-07
3.75698e-07
3.8424991e-07
3.897548e-07
3.9363079e-07
3.9580658e-07
3.9652063e-07
3.9658815e-07
4.0590837e-07
3.9484635e-07
3.9674212e-07
3.9592535e-07
3.9592251e-07
3.9591888e-07
3.9591976e-07
3.9592037e-07
3.9592079e-07
3.9592108e-07
3.9592129e-07
3.9592145e-07
3.9592157e-07
3.9592167e-07
4.1876764e-07
3.9485875e-07
3.9666658e-07
3.9592507e-07
3.9592306e-07
3.9591894e-07
3.9591978e-07
3.9592038e-07
3.9592079e-07
3.9592108e-07
3.9592129e-07
3.9592145e-07
3.9592157e-07
3.9592167e-07
4.2647404e-07
3.9495974e-07
3.96518e-07
3.9592138e-07
3.9592267e-07
3.9591897e-07
3.9591981e-07
3.959204e-07
3.959208e-07
3.9592108e-07
3.9592129e-07
3.9592145e-07
3.9592157e-07
3.9592167e-07
4.2342195e-07
3.9507936e-07
3.9639794e-07
3.9591623e-07
3.9592192e-07
3.9591898e-07
3.9591985e-07
3.9592042e-07
3.9592081e-07
3.9592109e-07
3.959213e-07
3.9592145e-07
3.9592157e-07
3.9592167e-07
4.1589878e-07
3.9512925e-07
3.9629955e-07
3.9591068e-07
3.9592117e-07
3.9591902e-07
3.959199e-07
3.9592045e-07
3.9592083e-07
3.959211e-07
3.959213e-07
3.9592145e-07
3.9592157e-07
3.9592167e-07
4.0799204e-07
3.9528731e-07
3.9621019e-07
3.9590667e-07
3.9592047e-07
3.9591905e-07
3.9591994e-07
3.9592047e-07
3.9592084e-07
3.9592113e-07
3.9592132e-07
3.9592147e-07
3.9592159e-07
3.9592168e-07
4.0265237e-07
3.9541609e-07
3.9613566e-07
3.9590518e-07
3.9591992e-07
3.9591919e-07
3.9592003e-07
3.9592053e-07
3.9592088e-07
3.9592112e-07
3.9592131e-07
3.9592146e-07
3.9592158e-07
3.9592167e-07
3.9984741e-07
3.9547907e-07
3.9607169e-07
3.959061e-07
3.9591957e-07
3.9591924e-07
3.9592005e-07
3.9592054e-07
3.9592089e-07
3.9847571e-07
3.9553259e-07
3.9602221e-07
3.9590802e-07
3.9591923e-07
3.9763488e-07
3.9559953e-07
3.9036032e-07
3.8952072e-07
3.8881354e-07
3.8827413e-07
3.8788842e-07
3.8763675e-07
3.8752089e-07
3.8755712e-07
3.8785932e-07
3.8826644e-07
3.8931089e-07
3.8978262e-07
3.9206222e-07
3.9123717e-07
3.9049635e-07
3.8989139e-07
3.8943761e-07
3.8913477e-07
3.8900078e-07
3.8905951e-07
3.893846e-07
3.8983391e-07
3.9074597e-07
3.9116606e-07
3.9357433e-07
3.928961e-07
3.9224317e-07
3.9167184e-07
3.9121173e-07
3.9088512e-07
3.9072766e-07
3.9077e-07
3.9104746e-07
3.9145184e-07
3.9218055e-07
3.9247883e-07
3.9509582e-07
3.9468632e-07
3.9422218e-07
3.9373826e-07
3.9327999e-07
3.9287978e-07
3.9257169e-07
3.9240139e-07
3.9240275e-07
3.9259195e-07
3.9289093e-07
3.9340897e-07
3.936088e-07
3.9556477e-07
3.9535438e-07
3.9509085e-07
3.9479071e-07
3.9448047e-07
3.9418615e-07
3.9394037e-07
3.9378587e-07
3.937544e-07
3.9385568e-07
3.9404139e-07
3.9436374e-07
3.9447494e-07
3.9582671e-07
3.9578221e-07
3.9568906e-07
3.9556288e-07
3.9540608e-07
3.9522956e-07
3.9504729e-07
3.9488193e-07
3.9476573e-07
3.9472348e-07
3.9476274e-07
3.9485821e-07
3.9503228e-07
3.9507449e-07
3.9588052e-07
3.9586579e-07
3.9583121e-07
3.9577954e-07
3.9570956e-07
3.9562361e-07
3.9552759e-07
3.9543353e-07
3.9536001e-07
3.9532354e-07
3.9532996e-07
3.953688e-07
3.9544771e-07
3.9545179e-07
3.9589834e-07
3.958931e-07
3.9588208e-07
3.9586444e-07
3.9583774e-07
3.9580136e-07
3.9575729e-07
3.9571075e-07
3.95671e-07
3.9564621e-07
3.9564084e-07
3.9565158e-07
3.9568039e-07
3.9567026e-07
3.9590442e-07
3.9590226e-07
3.958984e-07
3.9589265e-07
3.9588394e-07
3.9587093e-07
3.9585334e-07
3.9583281e-07
3.9581349e-07
3.9579957e-07
3.9579285e-07
3.9579325e-07
3.9580053e-07
3.9578911e-07
3.9590697e-07
3.9590583e-07
3.9590421e-07
3.95902e-07
3.9589889e-07
3.9589464e-07
3.9588852e-07
3.9588083e-07
3.9587238e-07
3.9586514e-07
3.9586063e-07
3.9585871e-07
3.9585893e-07
3.9585055e-07
3.9590833e-07
3.9590763e-07
3.9590674e-07
3.9590563e-07
3.9590429e-07
3.959025e-07
3.9590047e-07
3.9589774e-07
3.9589462e-07
3.9589136e-07
3.958887e-07
3.9588718e-07
3.9588597e-07
3.9588101e-07
3.9590964e-07
3.9590889e-07
3.959082e-07
3.9590754e-07
3.9590677e-07
3.9590588e-07
3.959048e-07
3.9590388e-07
3.9590274e-07
3.9590147e-07
3.9590018e-07
3.9589928e-07
3.958984e-07
3.9589582e-07
3.9591061e-07
3.9590998e-07
3.9590932e-07
3.9590867e-07
3.9590815e-07
3.9590759e-07
3.9590697e-07
3.9590629e-07
3.9590584e-07
3.9590538e-07
3.9590486e-07
3.9590439e-07
3.959039e-07
3.9590283e-07
3.9591152e-07
3.95911e-07
3.9591046e-07
3.9590991e-07
3.9590936e-07
3.9590892e-07
3.959085e-07
3.9590809e-07
3.959077e-07
3.9590746e-07
3.9590729e-07
3.9590714e-07
3.9590693e-07
3.9590646e-07
3.9592215e-07
3.9592224e-07
3.9592225e-07
3.9592225e-07
3.9592216e-07
3.9592224e-07
3.9592225e-07
3.9592216e-07
3.9592224e-07
3.9592216e-07
3.9592215e-07
3.9592222e-07
3.9592221e-07
3.9592222e-07
3.9592222e-07
3.9592222e-07
3.9592222e-07
3.9592222e-07
3.9592222e-07
3.9592222e-07
3.9592222e-07
3.9592222e-07
3.9592222e-07
3.9592222e-07
3.9592224e-07
3.9592226e-07
3.9592226e-07
3.9592226e-07
3.9592226e-07
3.9592226e-07
3.9592226e-07
3.9592226e-07
3.9592226e-07
3.9592226e-07
3.9592226e-07
3.9592226e-07
3.9592226e-07
3.9592226e-07
3.9592226e-07
3.9592226e-07
3.9592226e-07
3.9592226e-07
3.9592226e-07
3.9592226e-07
3.9592226e-07
3.9592225e-07
3.9592226e-07
3.9592225e-07
3.9592225e-07
3.9592224e-07
3.9592225e-07
3.9592224e-07
3.9592224e-07
3.9592224e-07
3.9592224e-07
3.9592222e-07
4.2369872e-07
3.9468553e-07
3.9671842e-07
3.9593306e-07
3.959182e-07
3.9591877e-07
3.9591976e-07
3.9592039e-07
3.959208e-07
3.959211e-07
3.9592131e-07
3.9592147e-07
3.959216e-07
3.9592169e-07
4.1926472e-07
3.9511513e-07
3.9644163e-07
3.9592913e-07
3.9591846e-07
3.959193e-07
3.9592012e-07
3.9592063e-07
3.9592098e-07
3.9592123e-07
3.9592142e-07
3.9592156e-07
3.9592167e-07
3.9592176e-07
4.1785123e-07
3.9520092e-07
3.9628737e-07
3.9592464e-07
3.9591889e-07
3.9591978e-07
3.9592047e-07
3.9592092e-07
3.959212e-07
3.959214e-07
3.9592155e-07
3.9592167e-07
3.9592176e-07
3.9592183e-07
4.1737634e-07
3.9529221e-07
3.9618322e-07
3.9592246e-07
3.959193e-07
3.9592013e-07
3.9592073e-07
3.959211e-07
3.9592135e-07
3.9592153e-07
3.9592166e-07
3.9592175e-07
3.9592183e-07
3.9592189e-07
3.9592226e-07
3.9592226e-07
3.9592226e-07
3.9592226e-07
3.9592226e-07
3.9592226e-07
3.9592226e-07
3.9592226e-07
3.9592226e-07
3.9592226e-07
3.9592226e-07
3.9592226e-07
3.9592226e-07
3.9592226e-07
3.9592226e-07
3.9592226e-07
3.9592226e-07
3.9592226e-07
3.9592226e-07
3.9592226e-07
3.9592226e-07
3.9592226e-07
3.9592226e-07
3.9592226e-07
3.9592226e-07
3.9592225e-07
3.9592226e-07
3.9592226e-07
3.9592226e-07
3.9592226e-07
3.9592226e-07
3.9592226e-07
3.9592226e-07
3.9592226e-07
3.9592226e-07
3.9592226e-07
3.9592225e-07
3.9592225e-07
3.9592224e-07
3.9592217e-07
3.9592226e-07
3.9592226e-07
3.9592226e-07
3.9592226e-07
3.9592226e-07
3.9592226e-07
3.9592226e-07
3.9592226e-07
3.9592226e-07
3.9592226e-07
3.9592225e-07
3.9592225e-07
3.9592224e-07
3.9592216e-07
3.9592226e-07
3.9592226e-07
3.9592226e-07
3.9592226e-07
3.9592226e-07
3.9592226e-07
3.9592226e-07
3.9592225e-07
3.9592225e-07
3.9592224e-07
3.9592216e-07
3.9592226e-07
3.9592226e-07
3.9592226e-07
3.9592225e-07
3.9592225e-07
3.9592224e-07
3.9592215e-07
)
;

boundaryField
{
    Side
    {
        type            empty;
    }
    Inlet
    {
        type            inletOutlet;
        inletValue      uniform 3.9592226e-07;
        value           nonuniform List<scalar> 7(3.9592226e-07 3.9592226e-07 3.9592226e-07 3.9592226e-07 3.9592226e-07 3.9592226e-07 3.9592226e-07);
    }
    Airfoil
    {
        type            nutUSpaldingWallFunction;
        value           nonuniform List<scalar> 0();
    }
    Outlet
    {
        type            zeroGradient;
    }
    Flap
    {
        type            nutUSpaldingWallFunction;
        value           nonuniform List<scalar> 
30
(
1.3125687e-06
1.282622e-06
1.2602296e-06
1.2451613e-06
1.2357347e-06
1.2311867e-06
1.2333267e-06
1.2431341e-06
1.2623206e-06
1.2571175e-06
1.2529054e-06
7.4199178e-07
1.6354362e-06
1.7908184e-06
1.8947378e-06
1.9820582e-06
2.0560245e-06
2.1209049e-06
2.1792266e-06
2.2326325e-06
2.2821089e-06
2.3289475e-06
2.3758237e-06
2.4252581e-06
2.474938e-06
2.5138715e-06
6.846245e-06
7.219609e-06
7.9429249e-06
8.619641e-06
)
;
    }
    procBoundary4to3
    {
        type            processor;
        value           nonuniform List<scalar> 
142
(
3.95915e-07
3.9591575e-07
3.9591575e-07
3.9591517e-07
3.9591462e-07
3.9591402e-07
3.9591342e-07
3.9591272e-07
3.9591192e-07
3.9591102e-07
3.9590999e-07
3.9590881e-07
3.9590729e-07
3.9590493e-07
3.9589982e-07
3.9588317e-07
3.9588317e-07
3.9592199e-07
3.9592199e-07
3.9592193e-07
3.9592193e-07
3.9592193e-07
3.9592184e-07
3.9592184e-07
3.9592172e-07
3.9592172e-07
3.9592172e-07
3.9592152e-07
3.9592152e-07
3.9592152e-07
3.9592119e-07
3.9592121e-07
3.9592121e-07
3.9592057e-07
3.9592062e-07
3.9592062e-07
3.9591923e-07
3.9591923e-07
3.9591473e-07
3.9592213e-07
3.9592215e-07
3.9592213e-07
3.9592215e-07
3.9592215e-07
3.9592214e-07
3.9592214e-07
3.9592211e-07
3.9592213e-07
3.9592211e-07
3.9592208e-07
3.9592211e-07
3.9592208e-07
3.9592204e-07
3.9592208e-07
3.9592204e-07
3.95922e-07
3.9592204e-07
3.9592199e-07
3.9591645e-07
3.959168e-07
3.9591728e-07
3.9591755e-07
3.9591755e-07
3.8954802e-07
3.8804933e-07
3.8744007e-07
3.8748431e-07
3.8784964e-07
3.8849214e-07
3.8963597e-07
3.9122889e-07
3.9428776e-07
4.002717e-07
4.0222031e-07
3.9681172e-07
3.9592008e-07
4.3927797e-07
3.9128405e-07
3.9291118e-07
3.9420646e-07
3.9420646e-07
3.9532757e-07
3.9567419e-07
3.9567419e-07
3.9592214e-07
3.9592226e-07
3.9592226e-07
3.9592226e-07
3.9592226e-07
3.9592226e-07
3.9592226e-07
3.9592226e-07
3.9592226e-07
3.9592226e-07
3.9592226e-07
3.9592226e-07
3.9592226e-07
3.9592226e-07
3.9592226e-07
3.9592226e-07
3.9592225e-07
3.9592225e-07
3.9592224e-07
3.9592224e-07
3.9592224e-07
3.9592221e-07
3.9592221e-07
3.9592221e-07
3.9592222e-07
3.9592222e-07
4.1697613e-07
3.9537469e-07
3.9611386e-07
3.9592129e-07
3.9591962e-07
3.9592039e-07
3.9592091e-07
3.9592124e-07
3.9592147e-07
3.9592162e-07
3.9592173e-07
3.9592182e-07
3.9592189e-07
3.9592194e-07
3.9592226e-07
3.9592226e-07
3.9592226e-07
3.9592226e-07
3.9592226e-07
3.9592226e-07
3.9592226e-07
3.9592226e-07
3.9592226e-07
3.9592226e-07
3.9592226e-07
3.9592226e-07
3.9592226e-07
3.9592225e-07
3.9592225e-07
3.9592225e-07
3.9592224e-07
3.9592217e-07
)
;
    }
    procBoundary4to5
    {
        type            processor;
        value           nonuniform List<scalar> 
189
(
3.9592113e-07
3.9592109e-07
3.9592105e-07
3.95921e-07
3.9592096e-07
3.9592091e-07
3.9592086e-07
3.959208e-07
3.9592073e-07
3.9592067e-07
3.959206e-07
3.9592053e-07
3.9592045e-07
3.9592037e-07
3.9592222e-07
3.9592222e-07
3.9592222e-07
3.9592222e-07
3.9592215e-07
3.9592222e-07
3.9592215e-07
3.9592216e-07
3.9592214e-07
3.9592214e-07
3.9592214e-07
3.9592212e-07
3.9592212e-07
3.9592213e-07
3.959221e-07
3.959221e-07
3.9592208e-07
3.9592208e-07
3.9592208e-07
3.9592204e-07
3.9592222e-07
3.9592204e-07
3.9592205e-07
3.9592205e-07
3.9592205e-07
3.9592205e-07
3.9592201e-07
3.9592201e-07
3.9592201e-07
3.9592202e-07
3.9592202e-07
3.9592197e-07
3.9592197e-07
3.9592197e-07
3.9592198e-07
3.9592198e-07
3.9592199e-07
3.9592194e-07
3.9592134e-07
3.9592161e-07
3.959217e-07
3.959217e-07
3.9592177e-07
3.9592177e-07
3.9592188e-07
3.9592194e-07
3.9591702e-07
3.9591704e-07
3.9591721e-07
3.95913e-07
3.9591748e-07
3.95913e-07
3.9591917e-07
3.9591917e-07
3.9591911e-07
3.959191e-07
3.9591702e-07
3.9591915e-07
3.959203e-07
3.9592028e-07
3.9592025e-07
3.9591917e-07
3.9592024e-07
3.9591308e-07
3.9591232e-07
3.9591124e-07
3.9590918e-07
3.9557202e-07
3.9590469e-07
3.9557202e-07
3.9529113e-07
3.9496527e-07
3.9350972e-07
3.9350972e-07
3.9354718e-07
3.939918e-07
3.9395827e-07
3.9395827e-07
3.9479836e-07
3.9541041e-07
3.9552878e-07
3.9552878e-07
3.9565129e-07
3.9571911e-07
3.9571911e-07
3.9588357e-07
3.9595696e-07
3.9601336e-07
3.9608407e-07
3.9613732e-07
3.9619734e-07
3.9626049e-07
3.9632979e-07
3.9638093e-07
3.964028e-07
3.9637716e-07
3.9695628e-07
3.9592216e-07
3.9592115e-07
3.9592134e-07
3.9592148e-07
3.9592159e-07
3.9592168e-07
3.9592216e-07
3.9591939e-07
3.9592013e-07
3.959206e-07
3.9592115e-07
3.9592093e-07
3.9598337e-07
3.9591084e-07
3.9591939e-07
3.959191e-07
3.9695628e-07
3.9598337e-07
3.9568604e-07
3.9592226e-07
3.9592225e-07
3.9592226e-07
3.9592226e-07
3.9592226e-07
3.9592225e-07
3.9592225e-07
3.9592225e-07
3.9592224e-07
3.9592224e-07
3.9592224e-07
3.9592216e-07
3.9592224e-07
3.9592224e-07
3.9592224e-07
3.9592224e-07
3.9592224e-07
3.9592224e-07
3.9592224e-07
3.9592224e-07
3.9592224e-07
3.9592224e-07
3.9592224e-07
3.9592222e-07
3.9592225e-07
3.9592224e-07
3.9592225e-07
3.9592226e-07
3.9592226e-07
3.9592226e-07
3.9592226e-07
3.9592226e-07
3.9592226e-07
3.9592226e-07
3.9592226e-07
3.9592226e-07
3.9592226e-07
3.9592226e-07
3.9592226e-07
3.9592226e-07
3.9592226e-07
3.9592226e-07
3.9592226e-07
3.9592226e-07
3.9592226e-07
3.9592226e-07
3.9592225e-07
3.9592225e-07
3.9592225e-07
3.9592225e-07
3.9592226e-07
3.9592226e-07
3.9592226e-07
3.9592226e-07
3.9592226e-07
3.9592226e-07
3.9592226e-07
3.9592226e-07
3.9592226e-07
)
;
    }
}


// ************************************************************************* //
