/*--------------------------------*- C++ -*----------------------------------*\
| =========                 |                                                 |
| \\      /  F ield         | OpenFOAM: The Open Source CFD Toolbox           |
|  \\    /   O peration     | Version:  2206                                  |
|   \\  /    A nd           | Website:  www.openfoam.com                      |
|    \\/     M anipulation  |                                                 |
\*---------------------------------------------------------------------------*/
FoamFile
{
    version     2.0;
    format      ascii;
    arch        "LSB;label=32;scalar=64";
    class       volScalarField;
    location    "0.01";
    object      p;
}
// * * * * * * * * * * * * * * * * * * * * * * * * * * * * * * * * * * * * * //

dimensions      [1 -1 -2 0 0 0 0];

internalField   nonuniform List<scalar> 
1396
(
1
1
1
1
1
1
1
1
1
1
1
1
1
1
1
1
1
1
1
1
1
1
1
1
1
1
1
1
1
1
1
1
1
1
1
1
1
1
1
1
1
1
1
1
1
1
1
1
1
1
1
0.99999998
0.99999991
0.99999951
0.99999746
0.99998664
1
1
1
1
1
1
1
1
1
1
0.99999998
0.99999991
0.99999947
0.99999687
1
1
1
1
1
1
1
1
1
1
1
0.99999998
0.99999989
0.9999993
1
1
1
1
1
1
1
1
1
1
1
1
0.99999998
0.99999985
1
1
1
1
1
1
1
1
1
1
1
1
1
0.99999997
1
1
1
1
1
1
1
1
1
1
1
1
1
0.99999999
1
1
1
1
1
1
1
1
1
1
1
1
1
1
1
1
1
1
1
1
1
1
1
1
1
1
1
1
1
1
1
1
1
1
1
1
1
1
1
1
1
1
1
1
1
1
1
1
1
1
1
1
1
1
1
1
1
1
1
1
1
1
1
1
1
1
1
1
1
1
1
1
1
1
1
1
1
1
1
1
1
1
1
1
1
1
1
1
1
1
1
1
1
1
1
1
1
1
1
1
1
1
1
1
1
1
1
1
1
1
1
1
1
1
1
1
1
1
1
1
1
1
1
1
1
1
1
1
1
1
1
1
1
1
1
1
1
1
1
1
1
1
1
1
1
1
1
1
1
1
1
1
1
1
1
1
1
1
1
1
1
1
1
1
1
1
1
1
1
1
1
1
1
1
1
1
1
1
1
1
1
1
1
1
1
1
1
1
1
1
1
1
1
1
1
1
1
1
1
1
1
1
1
1
1
1
1
1
1
1
1
1
1
1
1
1
1
1
1
1
1
1
1
1
1
1
1
1
1
1
1
1
1
1
1
1
1
1
1
1
1
1
1
1
1
1
1
1
1
1
1
1
1
1
1
1
1
1
1
1
1
1
1
1
1
1
1
1
0.99999999
0.99999999
0.99999998
0.99999997
0.99999995
0.99999991
1
1
1
1
1
1
1
1
1
1
1
1
1
0.92052783
0.87646569
0.82710658
0.77653166
0.72704845
0.68000104
0.63732257
0.60046278
0.58125146
0.58031845
0.61406914
0.65017665
0.63609553
0.58961838
0.90518194
0.858867
0.80886456
0.75861623
0.70990573
0.66396963
0.62290981
0.58776601
0.57177001
0.57825634
0.6128766
0.6419679
0.62610108
0.58125113
0.89158279
0.8437594
0.79340773
0.74343287
0.69529716
0.65018291
0.61033599
0.57625111
0.56344251
0.57573819
0.61057996
0.63372591
0.61680186
0.57400028
0.8808175
0.83200616
0.7813916
0.73153535
0.68371036
0.63906656
0.59998606
0.56634893
0.55613387
0.57222331
0.60688129
0.62575294
0.60822161
0.56688874
0.87321724
0.82365021
0.77266169
0.72265745
0.67480193
0.63022786
0.59143308
0.55775599
0.54907458
0.56725036
0.60155129
0.61778163
0.59960517
0.55899517
0.8688323
0.81853706
0.76692955
0.71641969
0.66811138
0.62311913
0.58394417
0.54958107
0.54108451
0.55992386
0.59410077
0.6099302
0.59091728
0.55019032
0.86829126
0.81727086
0.76476376
0.71335067
0.66411718
0.61814744
0.57783986
0.54183256
0.5318661
0.54971907
0.58427239
0.60292176
0.58299563
0.54123782
0.8720307
0.82032093
0.76664749
0.71394005
0.66332319
0.61584113
0.57367543
0.53517286
0.52183877
0.5367354
0.5713781
0.59630979
0.57592477
0.53214233
0.88148603
0.82942049
0.77438074
0.71990835
0.66734981
0.61778698
0.57315454
0.53241481
0.51375031
0.5233471
0.55804536
0.59120142
0.57028614
0.52380423
0.89231848
0.83955182
0.78263086
0.72588518
0.67091863
0.61876181
0.57096306
0.52636556
0.50052015
0.50208057
0.53306178
0.57663912
0.55710664
0.51262542
0.91277753
0.8624837
0.80523328
0.74648919
0.68885326
0.6338021
0.58304862
0.53801598
0.50646284
0.4998123
0.53172249
0.59246207
0.5791458
0.54394997
0.92077324
0.86911706
0.80832549
0.74613029
0.68550192
0.62726499
0.57203062
0.51808171
0.4742189
0.46474637
0.4874114
0.57011823
0.56079021
0.56440579
0.99999615
0.99998912
0.99997174
0.99993053
0.99983784
0.999638
0.99922513
0.99841083
0.99688269
0.99413724
0.98938108
0.98159757
0.9696088
0.95405653
0.99998471
0.99995618
0.99988633
0.99972366
0.99936627
0.99862062
0.99715242
0.99444157
0.98976484
0.98225296
0.97100373
0.95511399
0.93399168
0.90992011
0.99994904
0.99985302
0.99962036
0.99908985
0.99797113
0.99578724
0.99184155
0.98524265
0.97502815
0.9603935
0.940899
0.91640483
0.88714747
0.85554048
0.99984291
0.99954685
0.99884721
0.99732533
0.99432583
0.98894195
0.98011238
0.96683321
0.94846611
0.92505169
0.8972805
0.8655861
0.8287824
0.79264234
0.99956145
0.99875571
0.9969401
0.99323661
0.9864919
0.97544468
0.95906879
0.93695644
0.90958705
0.87821462
0.84385069
0.80503353
0.76441612
0.7281153
0.9970653
0.99308968
0.98553792
0.97287833
0.95396849
0.92855931
0.89747616
0.86230709
0.82451126
0.78314204
0.74101174
0.70040096
0.66536029
0.9941678
0.98688417
0.97399051
0.95402149
0.92659999
0.89268741
0.85408607
0.8125681
0.76825856
0.72328247
0.68050405
0.6399955
0.60587944
0.99035034
0.97917158
0.96058901
0.93367516
0.89908319
0.85868809
0.81449012
0.76787947
0.71971707
0.67296932
0.62833845
0.58588775
0.55115462
0.97239406
0.94954312
0.91804129
0.87932798
0.83566609
0.78887792
0.74000587
0.69090548
0.64164953
0.59232707
0.54427412
0.50659805
0.96963922
0.94563932
0.91361095
0.87545583
0.83350367
0.78922236
0.74290793
0.69497631
0.64363832
0.58735063
0.53151197
0.49075552
0.97272348
0.95142239
0.92368868
0.89181351
0.85823472
0.82401963
0.78839154
0.74923592
0.70446868
0.6492816
0.57455701
0.52383364
0.9645149
0.94419127
0.92195891
0.90060453
0.88126596
0.86219453
0.84029332
0.81646173
0.78496161
0.73999257
0.67464024
0.97879898
0.96555202
0.95108598
0.93758606
0.92552125
0.91301064
0.90059728
0.89672155
0.90037182
0.88373564
0.82495548
0.99015524
0.98256636
0.97342098
0.96386892
0.95361298
0.93924708
0.91411877
0.87383994
0.85372723
0.86923512
0.85519163
0.83244223
0.88615602
0.88068309
0.90367304
0.93674422
0.95780009
0.96991056
0.97754854
0.98429204
0.99019857
0.8321428
0.88841131
0.88292208
0.90670032
0.93950206
0.96045988
0.97270089
0.98016716
0.98659238
0.99186101
0.83133056
0.89109346
0.8850055
0.90967528
0.94226016
0.9630832
0.9754324
0.98288424
0.98882104
0.99349661
0.83036531
0.89400511
0.8870183
0.91259796
0.94500778
0.96564607
0.97808504
0.98558141
0.9910192
0.99510356
0.99782753
0.82921842
0.89695156
0.88898893
0.91550416
0.94778576
0.96817162
0.98066512
0.98817427
0.99317361
0.99670243
0.99879022
0.82793846
0.89983298
0.89097769
0.91840847
0.95055705
0.97065552
0.98317707
0.99069651
0.99531641
0.99826387
0.9997235
0.82656292
0.90254227
0.89299615
0.92130718
0.95329515
0.97309596
0.98562611
0.99317571
0.99748743
0.99976642
1.0006256
0.82516092
0.90506524
0.89507444
0.92419855
0.95599278
0.97549696
0.98801159
0.99560927
0.99957208
1.001258
1.0014996
0.8238386
0.90738505
0.89718301
0.92706189
0.95864056
0.97786132
0.99031388
0.99797622
1.0016251
1.0027055
1.0023393
0.82244587
0.90933917
0.8991954
0.92984628
0.96116611
0.98015177
0.99250157
1.0002389
1.0035878
1.0040955
1.0031349
0.8203307
0.91064578
0.90092599
0.93245831
0.96342795
0.98229683
0.9945764
1.0024311
1.0054802
1.0054142
1.0038836
0.81702034
0.91134791
0.90253374
0.93485342
0.96545813
0.98437613
0.99668266
1.0047295
1.0074548
1.0067555
1.0046251
0.81379652
0.91234878
0.90493918
0.93741202
0.96780339
0.98680842
0.99912942
1.0072698
1.0096119
1.0081938
1.005401
0.8140786
0.91489008
0.90898055
0.94086061
0.97103049
0.98988271
1.0019228
1.0097115
1.0115012
1.0094025
1.0060329
1.2231897
0.9993098
1.0163326
1.0003878
1.0000638
1.000001
1
1
1
1
1
1
1
1
1.1454933
0.98737597
1.0138393
1.0002166
1.0000712
1.0000013
1.0000001
1
1
1
1
1
1
1
1.1049071
0.98125206
1.0105557
1.0000026
1.0000657
1.000001
1.0000001
1
1
1
1
1
1
1
1.0884022
0.98065559
1.0076519
0.99985202
1.0000532
1.0000004
1.0000001
1
1
1
1
1
1
1
1.0818796
0.98307637
1.0053636
0.99978966
1.0000389
0.99999977
1.0000001
1
1
1
1
1
1
1
1.0736844
0.98648548
1.0037289
0.99979469
1.0000264
0.99999947
1.0000001
1
1
1
1
1
1
1
1.0602932
0.9896464
1.0024831
0.99983354
1.0000171
0.99999944
1
1
1
1
1
1
1
1
1.0445645
0.99235758
1.0015485
0.9998807
1.0000105
0.99999956
1
1
1
1.029431
0.99470372
1.000902
0.99992325
1.000006
1.0170525
0.99662366
0.95206955
0.94025129
0.92928813
0.92024503
0.91361686
0.90966052
0.90902658
0.91216851
0.91988781
0.92903548
0.94432101
0.95181123
0.97366207
0.96542764
0.95734448
0.950252
0.94464582
0.94093614
0.93979143
0.94166299
0.94688185
0.95338808
0.96377367
0.9685911
0.98713541
0.98212934
0.97688495
0.97195671
0.9677519
0.96470147
0.96341236
0.9642833
0.96742242
0.97156667
0.97803452
0.98075651
0.99658498
0.99448862
0.99186092
0.98889523
0.98588456
0.98310026
0.98088801
0.97971783
0.97990934
0.98150754
0.98381562
0.98744536
0.98878442
0.99880908
0.99793036
0.99674251
0.99528975
0.9936895
0.99208422
0.99069365
0.98982536
0.98970455
0.99036721
0.99147882
0.99329072
0.99381305
0.99977182
0.9996333
0.99931637
0.9988526
0.99823567
0.99749636
0.9966918
0.99593468
0.99539499
0.99520929
0.99540996
0.99586181
0.99665431
0.99676953
0.99993816
0.99989656
0.99979833
0.99964241
0.99941509
0.99911693
0.99876397
0.99840305
0.9981137
0.99796713
0.99798775
0.99813248
0.9984279
0.99839012
0.99998432
0.99997235
0.9999445
0.99989823
0.99982583
0.99972156
0.99958568
0.99943351
0.99929681
0.99920781
0.99918162
0.99920952
0.99929667
0.99922942
0.99999621
0.99999297
0.99998545
0.9999725
0.99995138
0.99991925
0.99987392
0.99981761
0.99976027
0.99971477
0.99968921
0.99968419
0.99969874
0.99964489
0.99999913
0.9999983
0.99999637
0.9999929
0.999987
0.99997765
0.99996387
0.9999456
0.99992472
0.9999047
0.99988927
0.99988036
0.99987601
0.99984225
0.99999981
0.99999961
0.99999914
0.99999825
0.99999668
0.99999406
0.99999004
0.99998446
0.99997766
0.99997023
0.9999629
0.99995687
0.99995081
0.99993242
0.99999996
0.99999992
0.99999981
0.99999959
0.99999919
0.99999849
0.99999736
0.99999572
0.9999936
0.99999111
0.99998827
0.99998519
0.99998117
0.99997213
0.99999999
0.99999998
0.99999996
0.99999991
0.99999981
0.99999963
0.99999933
0.99999886
0.99999823
0.99999742
0.99999643
0.99999514
0.99999304
0.99998893
1
1
0.99999999
0.99999998
0.99999996
0.99999991
0.99999983
0.99999971
0.99999952
0.99999926
0.99999892
0.99999843
0.99999747
0.99999564
1
1
1
1
1
1
1
1
1
1
1
1
1
1
1
1
1
1
1
1
1
1
1
1
1
1
1
1
1
1
1
1
1
1
1
1
1
1
1
1
1
1
1
1
1
1
1
1
1
1
1
1
1
1
1
1
1.517748
1.0325845
1.0162846
1.0004056
1.0000088
1.0000001
1
1
1
1
1
1
1
1
1.441178
1.0269628
1.0106852
1.0002243
1.0000045
1
1
1
1
1
1
1
1
1
1.3701882
1.0202058
1.0073274
1.0001305
1.0000024
1
1
1
1
1
1
1
1
1
1.311085
1.0156176
1.0051656
1.0000811
1.0000014
1
1
1
1
1
1
1
1
1
1
1
1
1
1
1
1
1
1
1
1
1
1
1
1
1
1
1
1
1
1
1
1
1
1
1
1
1
1
1
1
1
1
1
1
1
1
1
1
1
1
1
1
1
1
1
1
1
1
1
1
1
1
1
1
1
1
1
1
1
1
1
1
1
1
1
1
1
1
1
1
1
)
;

boundaryField
{
    Side
    {
        type            empty;
    }
    Inlet
    {
        type            inletOutlet;
        inletValue      uniform 1;
        value           nonuniform List<scalar> 7(1 1 1 1 1 1 1);
    }
    Airfoil
    {
        type            zeroGradient;
    }
    Outlet
    {
        type            zeroGradient;
    }
    Flap
    {
        type            zeroGradient;
    }
    procBoundary4to3
    {
        type            processor;
        value           nonuniform List<scalar> 
142
(
1
1
1
1
1
1
1
1
1
1
0.99999998
0.9999999
0.9999995
0.99999752
0.99998849
0.99994594
0.99994594
1
1
1
1
1
1
1
1
1
1
1
1
1
1
1
1
1
1
1
1
1
1
1
1
1
1
1
1
1
1
1
1
1
1
1
1
1
1
1
1
1
1
1
1
1
1
0.93625453
0.89527555
0.84704829
0.79622261
0.74587148
0.6975497
0.65304053
0.61403864
0.59218692
0.58356529
0.61641723
0.65822632
0.64616074
0.59923371
0.96353436
0.98115968
0.99140404
0.99140404
0.99771755
0.99923207
0.99923207
1
1
1
1
1
1
1
1
1
1
1
1
1
1
1
1
1
1
1
1
1
1
1
1
1
1
1.2631084
1.0123736
1.0037517
1.0000534
1.0000009
1
1
1
1
1
1
1
1
1
1
1
1
1
1
1
1
1
1
1
1
1
1
1
1
1
1
1
)
;
    }
    procBoundary4to5
    {
        type            processor;
        value           nonuniform List<scalar> 
189
(
1
1
1
1
1
1
1
1
1
1
1
1
1
1
1
1
1
1
1
1
1
1
1
1
1
1
1
1
1
1
1
1
1
1
1
1
1
1
1
1
1
1
1
1
1
1
1
1
1
1
1
1
1
1
1
1
1
1
1
1
1
1
1
0.99999985
1
0.99999985
1
1
1
1
1
1
1
1
1
1
1
0.99999987
0.99999945
0.9999982
0.99999452
0.99893356
0.99998458
0.99893356
0.99779862
0.99622117
0.98680362
0.98680362
0.98522611
0.98673514
0.98036259
0.98036259
0.98883249
0.99531753
0.99478419
0.99478419
0.99581685
0.99683689
0.99683689
0.9992102
0.99969522
1.0001603
1.0006048
1.0010278
1.001427
1.0018002
1.0021459
1.0024796
1.0028202
1.0030929
1.0085447
1
1
1
1
1
1
1
0.99999971
1
1
1
1
1.0004906
0.99995615
0.99999971
1.0000032
1.0085447
1.0004906
0.99806147
1
1
1
1
1
1
1
1
1
1
1
1
1
1
1
1
1
1
1
1
1
1
1
1
1
1
1
1
1
1
1
1
1
1
1
1
1
1
1
1
1
1
1
1
1
1
1
1
1
1
1
1
1
1
1
1
1
1
1
)
;
    }
}


// ************************************************************************* //
