/*--------------------------------*- C++ -*----------------------------------*\
| =========                 |                                                 |
| \\      /  F ield         | OpenFOAM: The Open Source CFD Toolbox           |
|  \\    /   O peration     | Version:  2206                                  |
|   \\  /    A nd           | Website:  www.openfoam.com                      |
|    \\/     M anipulation  |                                                 |
\*---------------------------------------------------------------------------*/
FoamFile
{
    version     2.0;
    format      ascii;
    arch        "LSB;label=32;scalar=64";
    class       surfaceScalarField;
    location    "0.01";
    object      phi;
}
// * * * * * * * * * * * * * * * * * * * * * * * * * * * * * * * * * * * * * //

dimensions      [1 0 -1 0 0 0 0];

oriented        oriented;

internalField   nonuniform List<scalar> 
2608
(
-0.0023038659
0.001792112
-0.0018358221
0.002347576
-0.0022601559
0.001792112
-0.0018358221
-0.0022164458
0.001792112
-0.0018358221
-0.0021727358
0.001792112
-0.0018358221
-0.0021290257
0.001792112
-0.0018358221
-0.0020853157
0.001792112
-0.0018358221
-0.0020416056
0.001792112
-0.0018358221
-0.0019978956
0.001792112
-0.0018358221
-0.0019541855
0.001792112
-0.0018358221
-0.0019104755
0.001792112
-0.0018358221
-0.0018667654
0.001792112
-0.0018358221
-0.0018230554
0.001792112
-0.0018358221
-0.0017793453
0.001792112
-0.0018358221
0.001792112
-0.0018358221
-0.0017356353
-0.0023038659
0.001748402
0.0023475759
-0.0022601558
0.001748402
-0.0022164458
0.001748402
-0.0021727357
0.001748402
-0.0021290257
0.001748402
-0.0020853156
0.001748402
-0.0020416056
0.001748402
-0.0019978955
0.001748402
-0.0019541855
0.001748402
-0.0019104754
0.001748402
-0.0018667654
0.001748402
-0.0018230553
0.001748402
-0.0017793453
0.001748402
0.001748402
-0.0017356352
-0.0023038659
0.002347576
-0.0022601559
-0.0022164458
-0.0021727358
-0.0021290257
-0.0020853157
-0.0020416056
-0.0019978956
-0.0019541855
-0.0019104755
-0.0018667654
-0.0018230554
-0.0017793453
-0.0017356353
0.00086954867
0.001300374
-0.00094604125
0.00079305608
0.001300374
0.0007165635
0.001300374
0.0006400709
0.001300374
0.00056357832
0.001300374
0.00048708573
0.001300374
0.00041059315
0.001300374
0.00033410057
0.001300374
0.00025760799
0.001300374
0.00018111552
0.001300374
0.00010462352
0.0013003739
2.8134099e-05
0.0013003737
-4.8343071e-05
0.0013003725
0.0013003656
-0.00012475519
0.00086954866
0.0013768666
-0.00094604125
0.00079305609
0.0013768666
0.0007165635
0.0013768666
0.0006400709
0.0013768666
0.00056357831
0.0013768666
0.00048708574
0.0013768666
0.00041059315
0.0013768666
0.00033410056
0.0013768666
0.00025760799
0.0013768666
0.00018111541
0.0013768666
0.00010462293
0.0013768666
2.8130999e-05
0.0013768665
-4.835802e-05
0.0013768662
0.0013768645
-0.00012483004
0.00086954867
0.0014533591
-0.00094604125
0.00079305608
0.0014533591
0.0007165635
0.0014533591
0.0006400709
0.0014533592
0.00056357832
0.0014533591
0.00048708573
0.0014533591
0.00041059315
0.0014533591
0.00033410056
0.0014533591
0.00025760797
0.0014533591
0.00018111539
0.0014533591
0.00010462282
0.0014533592
2.8130372e-05
0.0014533591
-4.8361428e-05
0.0014533591
0.0014533587
-0.00012484895
0.00086954867
0.0015298517
-0.00094604125
0.00079305608
0.0015298517
0.00071656349
0.0015298517
0.00064007091
0.0015298517
0.00056357832
0.0015298517
0.00048708574
0.0015298517
0.00041059315
0.0015298517
0.00033410056
0.0015298517
0.00025760797
0.0015298517
0.00018111538
0.0015298517
0.00010462281
0.0015298517
2.8130246e-05
0.0015298517
-4.8362167e-05
0.0015298517
0.0015298516
-0.00012485357
0.00086954871
0.0016063443
-0.0009460413
0.00079305612
0.0016063443
0.00071656354
0.0016063443
0.00064007095
0.0016063443
0.00056357837
0.0016063443
0.00048708577
0.0016063443
0.00041059319
0.0016063443
0.00033410061
0.0016063443
0.00025760802
0.0016063443
0.00018111543
0.0016063443
0.00010462284
0.0016063443
2.8130265e-05
0.0016063443
-4.8362291e-05
0.0016063443
0.0016063443
-0.00012485461
0.00086954867
0.0016828369
-0.00094604125
0.00079305608
0.0016828369
0.00071656349
0.0016828369
0.0006400709
0.0016828369
0.00056357832
0.0016828369
0.00048708573
0.0016828369
0.00041059315
0.0016828369
0.00033410056
0.0016828369
0.00025760797
0.0016828369
0.00018111539
0.0016828369
0.0001046228
0.0016828369
2.8130217e-05
0.0016828369
-4.8362368e-05
0.0016828369
0.0016828369
-0.00012485489
0.00086954867
0.0017593295
-0.00094604125
0.00079305608
0.0017593295
0.00071656349
0.0017593295
0.00064007091
0.0017593295
0.00056357832
0.0017593295
0.00048708574
0.0017593295
0.00041059315
0.0017593295
0.00033410056
0.0017593295
0.00025760797
0.0017593295
0.00018111538
0.0017593295
0.00010462281
0.0017593295
2.8130216e-05
0.0017593295
-4.8362365e-05
0.0017593295
0.0017593295
-0.00012485495
0.00086954867
-0.00094604125
0.00079305608
0.00071656349
0.00064007091
0.00056357832
0.00048708573
0.00041059315
0.00033410056
0.00025760797
0.00018111539
0.0001046228
2.8130216e-05
-4.8362375e-05
-0.00012485496
0.014095084
-0.0016000151
-0.014062302
0.014127867
-0.001600015
0.014160649
-0.001600015
0.014193432
-0.0016000151
-0.001600015
0.014095084
-0.0016327975
-0.014062302
0.014127867
-0.0016327976
0.01416065
-0.0016327975
0.014193432
-0.0016327975
0.014226215
-0.0016327976
0.014258997
-0.0016327975
-0.0016327976
0.014095084
-0.0016655802
-0.014062302
0.014127867
-0.0016655801
0.01416065
-0.0016655802
0.014193432
-0.0016655801
0.014226215
-0.0016655801
0.014258997
-0.0016655801
0.01429178
-0.0016655802
0.014324562
-0.0016655801
-0.0016655802
0.014095084
-0.0016983626
-0.014062302
0.014127867
-0.0016983627
0.014160649
-0.0016983626
0.014193432
-0.0016983627
0.014226214
-0.0016983626
0.014258997
-0.0016983627
0.01429178
-0.0016983626
0.014324562
-0.0016983627
0.014357345
-0.0016983626
0.014390127
-0.0016983627
-0.0016983627
0.014095084
-0.014062302
0.014127867
-0.0017311451
0.01416065
-0.0017311452
0.014193432
-0.0017311452
0.014226215
-0.0017311451
0.014258997
-0.0017311452
0.01429178
-0.0017311451
0.014324562
-0.0017311452
0.014357345
-0.0017311451
0.014390127
-0.0017311452
0.01442291
-0.0017311452
-0.0017311451
0.014127867
0.01416065
0.014193432
-0.0017639277
0.014226215
-0.0017639278
0.014258997
-0.0017639276
0.01429178
-0.0017639278
0.014324562
-0.0017639278
0.014357345
-0.0017639277
0.014390127
-0.0017639278
0.01442291
-0.0017639278
0.014455692
-0.0017639277
0.014488475
-0.0017639277
-0.0017639278
0.014193432
0.014226215
-0.0017967103
0.014258997
-0.0017967102
0.01429178
-0.0017967103
0.014324562
-0.0017967103
0.014357345
-0.0017967102
0.014390127
-0.0017967103
0.01442291
-0.0017967102
0.014455692
-0.0017967103
0.014488475
-0.0017967102
-0.0017967103
0.014521257
0.014226214
0.014258997
0.01429178
-0.0018294928
0.014324562
-0.0018294928
0.014357345
-0.0018294928
0.014390127
-0.0018294928
0.01442291
-0.0018294928
0.014455692
-0.0018294928
0.014488475
-0.0018294928
-0.0018294928
0.014521257
0.01429178
0.014324562
0.014357345
-0.0018622753
0.014390127
-0.0018622753
0.01442291
-0.0018622753
0.014455692
-0.0018622753
0.014488475
-0.0018622753
-0.0018622753
0.014521257
0.014357345
0.014390127
0.01442291
-0.0018950579
0.014455692
-0.0018950578
0.014488475
-0.0018950579
-0.0018950579
0.014521257
0.01442291
0.014455692
0.014488475
-0.0019278404
-0.0019278404
0.014521257
0.014488475
-0.001960623
0.014521257
0.014521257
-0.014182269
-0.0019967787
-0.014302236
-0.0019967786
0.0021167458
-0.014422203
-0.0019967787
0.0021167457
-0.01454217
-0.0019967786
0.0021167458
-0.014662137
-0.0019967787
0.0021167457
-0.014782104
-0.0019967786
0.0021167458
-0.014902071
-0.0019967786
0.0021167457
-0.015022038
-0.0019967787
0.0021167457
-0.015142006
0.0021167458
0.0021167457
-0.014182269
-0.0018768116
-0.014302236
-0.0018768115
-0.014422203
-0.0018768116
-0.01454217
-0.0018768116
-0.014662137
-0.0018768115
-0.014782104
-0.0018768116
-0.014902071
-0.014182269
-0.0017568444
-0.014302236
-0.0017568445
-0.014422203
-0.0017568444
-0.01454217
-0.0017568446
-0.014662137
-0.014182269
-0.0016368774
-0.014302236
-0.0016368774
-0.014422203
-0.014182269
-0.00070117691
0.014398825
-0.00057874469
0.014398825
-0.00045631248
0.014398825
-0.00033388031
0.014398825
-0.00021144814
0.014398825
-8.901589e-05
0.014398825
0.014398825
-0.00070117687
0.014276393
-0.00057874469
0.014276393
-0.00045631253
0.014276393
-0.00033388031
0.014276393
-0.00021144814
0.014276393
-8.9016019e-05
0.014276393
0.014276393
-0.00070117686
0.014153961
-0.00057874469
0.014153961
-0.00045631248
0.014153961
-0.00033388031
0.014153961
-0.0002114481
0.014153961
-8.901589e-05
0.014153961
0.014153961
-0.00070117692
0.014031529
-0.0005787447
0.014031529
-0.00045631253
0.014031529
-0.00033388031
0.014031529
-0.00021144814
0.014031529
-8.9015975e-05
0.014031529
0.014031529
-0.00082360904
0.013909096
-0.00070117686
0.013909096
-0.00057874469
0.013909096
-0.00045631248
0.013909096
-0.00033388031
0.013909096
-0.00021144814
0.013909096
-8.901589e-05
0.013909096
-0.00082360908
0.013786664
-0.00070117687
0.013786664
-0.00057874469
0.013786664
-0.00045631253
0.013786664
-0.00033388031
0.013786664
-0.00021144809
0.013786664
0.013786664
-0.00082360908
0.013664232
-0.00070117691
0.013664232
-0.00057874469
0.013664232
-0.00045631248
0.013664232
-0.00033388031
0.013664232
-0.00021144814
0.013664232
0.013664232
-0.00082360908
0.0135418
-0.00070117687
0.0135418
-0.00057874466
0.0135418
-0.00045631253
0.0135418
-0.00033388031
0.0135418
-0.00021144814
0.0135418
0.0135418
-0.00082360904
0.013419368
-0.00070117686
0.013419368
-0.00057874469
0.013419368
-0.00045631248
0.013419368
-0.00033388031
0.013419368
-0.00021144814
0.013419368
-0.00082360908
0.013296935
-0.00070117692
0.013296936
-0.00057874469
0.013296935
-0.00045631253
0.013296936
-0.00033388036
0.013296935
0.013296935
-0.00082360908
0.013174503
-0.00070117686
0.013174503
-0.00057874469
0.013174503
-0.00045631248
0.013174503
-0.00033388031
0.013174503
0.013174503
-0.00082360908
0.013052071
-0.00070117687
0.013052071
-0.0005787447
0.013052071
-0.00045631253
0.013052071
-0.00033388031
0.013052071
0.013052071
-0.00082360904
0.012929639
-0.00070117691
0.012929639
-0.00057874469
0.012929639
-0.00045631248
0.012929639
-0.00033388031
0.012929639
0.012929639
-0.00082360908
0.012807207
-0.00070117687
0.012807207
-0.00057874469
0.012807207
-0.00045631253
0.012807207
-0.00033388031
0.012807207
0.012854027
0.0023007553
0.012900848
0.0023007553
0.0023007553
0.012854027
0.0022539348
0.012900848
0.0022539347
0.012854027
0.0022071141
0.0021602935
-0.0016740888
0.0032478669
-0.0033094134
-0.0016125423
0.0032478669
-0.0033094133
-0.0015509958
0.0032478669
-0.0033094133
-0.0014894494
0.0032478669
-0.0033094133
-0.0014279028
0.0032478669
-0.0033094132
-0.0013663563
0.0032478669
-0.0033094129
-0.0013048097
0.0032478669
-0.0033094126
-0.001243263
0.0032478669
-0.0033094121
-0.0011817164
0.0032478669
-0.0033094112
-0.0011201695
-0.0033094101
-0.0010586226
-0.0033094086
-0.00099707513
-0.0033094061
-0.0033094008
-0.0016740888
0.0031863205
-0.0016125423
0.0031863204
-0.0015509958
0.0031863204
-0.0014894493
0.0031863204
-0.0014279029
-0.0013663565
-0.00130481
-0.0012432635
-0.0016740888
-0.0016125423
-0.0015509958
-0.0024163328
0.0010376305
0.0027807116
-0.0019980875
0.00098032654
-0.00156956
0.00091754755
-0.0011548692
0.00085258621
-0.00076673234
0.00078834592
-0.00041929971
0.00072667431
-0.00013993966
0.00067015407
6.0395337e-05
0.00062423132
9.3715163e-05
0.00059676262
-0.00011899658
0.00060785079
-0.0003427949
0.00065341594
-0.00025992188
0.00068599533
-9.3372557e-05
0.00065866811
0.00057494413
-0.0022754924
0.0010153741
0.0026579546
-0.0018556198
0.00095451156
-0.001436143
0.00088980878
-0.001034469
0.00082403117
-0.00066193348
0.00075956465
-0.00033258417
0.00069819426
-7.571981e-05
0.00064252782
0.00010096007
0.0005984735
8.8061616e-05
0.00057567596
-0.00015068216
0.0005944715
-0.00035869517
0.00064130952
-0.00023129489
0.00066591016
-5.8013174e-05
0.00063325405
0.00055187259
-0.002155275
0.0010000591
0.0025487676
-0.0017369446
0.00093644262
-0.0013257596
0.00086996097
-0.00093502535
0.00080315573
-0.0005754147
0.00073808316
-0.00026057234
0.00067652224
-2.3580212e-05
0.00062103096
0.000132564
0.00057803097
8.1557685e-05
0.00055933404
-0.00017372878
0.00058392919
-0.00036377448
0.0006312136
-0.0002080046
0.00064950842
-3.3111121e-05
0.00061341069
0.00053414393
-0.0020639268
0.0009928653
0.0024631293
-0.0016485761
0.00092697074
-0.00124421
0.0008585958
-0.00086196349
0.0007903917
-0.00051214755
0.0007242063
-0.00020788622
0.00066184181
1.2446426e-05
0.00060580355
0.00015390951
0.00056292846
7.6000611e-05
0.00054710749
-0.00018908974
0.00057556665
-0.00036441627
0.00062320519
-0.00019256426
0.0006370747
-1.8622058e-05
0.00059848697
0.00051984772
-0.0020027819
0.0009951905
0.002404327
-0.0015906116
0.00092707168
-0.0011912877
0.00085635404
-0.00081499284
0.0007861084
-0.00047185144
0.00071805098
-0.00017464248
0.00065401983
4.6525053e-05
0.00059648243
0.00016667449
0.00055249752
7.1663588e-05
0.00053777438
-0.00019942499
0.00056834808
-0.00036513494
0.00061679402
-0.00018425458
0.00062809618
-1.1991587e-05
0.00058732336
0.00050756767
-0.0019702946
0.0010084464
0.0023729878
-0.0015600474
0.00093790719
-0.0011630958
0.00086416008
-0.00078947657
0.0007910116
-0.00044916034
0.00072010225
-0.00015453954
0.0006532947
6.9565327e-05
0.00059297679
0.00018084778
0.00054620047
7.8025033e-05
0.00053022026
-0.00019747574
0.00056103018
-0.00036394899
0.00061130874
-0.0001807946
0.00062299934
-1.0545524e-05
0.00058068603
0.00049833447
-0.0019709293
0.0010336911
0.0023746471
-0.0015602141
0.0009605547
-0.001161964
0.00088306118
-0.00078674514
0.00080609816
-0.00044428532
0.00073129859
-0.00014647262
0.0006605237
8.6354636e-05
0.00059602525
0.00020275985
0.00054454542
0.00010338503
0.00052424743
-0.00017522375
0.00055290621
-0.0003592686
0.0006058909
-0.00018406267
0.00062245346
-1.5626697e-05
0.00058012238
0.00049369366
-0.0020085313
0.0010726757
0.0024123644
-0.0015950907
0.00099688084
-0.0011920141
0.00091495712
-0.00081107469
0.00083318686
-0.00046161826
0.00075336918
-0.00015494245
0.00067739033
9.1271078e-05
0.00060745047
0.00022922767
0.00054983158
0.00014650228
0.00052206711
-0.00013141872
0.0005462808
-0.0003490962
0.00060273058
-0.00019763756
0.00062825072
-3.128973e-05
0.00058772808
0.00049383351
-0.0021000138
0.0011261759
0.0024977488
-0.0016837305
0.0010478755
-0.0012731803
0.00096101102
-0.00088274327
0.0008735272
-0.00052188871
0.00078757238
-0.00020231884
0.00070504517
5.0790286e-05
0.00062799856
0.00022840657
0.00056196696
0.00017526289
0.00052148255
-9.6058394e-05
0.00053447629
-0.00034881925
0.00058934717
-0.00023153311
0.0006265389
-6.3855283e-05
0.00059229618
0.0004918372
-0.0022020502
0.0011985379
0.0025923357
-0.0017808041
0.0011178478
-0.001359929
0.0010247501
-0.00095685958
0.00092930573
-0.0005808632
0.00083473662
-0.00024289034
0.00074332644
2.921296e-05
0.0006575069
0.00026042629
0.00058225377
0.000254811
0.0005301396
7.541836e-06
0.00053417286
-0.00027151239
0.0005940754
-0.0002328061
0.00064674762
-9.1191735e-05
0.00062313472
0.00050606907
-0.0024061817
0.001278196
0.0027613346
-0.0019912544
0.0011982474
-0.0015602628
0.0011008414
-0.0011401919
0.00099862662
-0.00074383495
0.00089570184
-0.00038534705
0.00079426456
-8.7600204e-05
0.00069604474
0.0001561328
0.00060333959
0.00020971617
0.0005250963
-1.9908531e-05
0.00049816674
-0.00033807591
0.00055344765
-0.00039801345
0.00060054066
-0.00025314667
0.00059034186
0.00037100745
-0.0024675956
0.0013879586
0.0028296842
-0.0020236707
0.0013075122
-0.0015624739
0.0012087073
-0.0011166786
0.001095915
-0.00069503105
0.00097971421
-0.00030549778
0.00086501579
3.3178014e-05
0.00075367628
0.00036891224
0.00064721604
0.00046188149
0.00055622609
0.00026338901
0.00051308143
-4.6753907e-05
0.00055663565
-0.00026321231
0.00062735115
-0.00015595457
0.00069745914
0.00032601755
-0.0018389938
-9.0438603e-05
6.24227e-05
-0.0018109409
-9.0412959e-05
6.2411944e-05
-0.0017828491
-9.0351445e-05
6.2387685e-05
-0.0017546751
-9.0206605e-05
6.233088e-05
-0.001726335
-8.9886511e-05
6.2204604e-05
-0.0016976728
-8.9218009e-05
6.1936438e-05
-0.0016684167
-8.7900983e-05
6.1391854e-05
-0.0016381209
-8.5459269e-05
6.0339121e-05
-0.0016060929
-8.1199885e-05
5.8407026e-05
-0.0015713176
-7.4213741e-05
5.5034624e-05
-0.001532825
-6.3485734e-05
4.9440101e-05
-0.0014897898
-4.8164403e-05
4.0591799e-05
-0.0014414309
-2.8479248e-05
2.7727522e-05
-7.4093951e-06
1.1447242e-05
-0.0018389372
-0.00011843173
-0.0018107941
-0.00011834218
-0.0017824962
-0.00011812878
-0.0017538806
-0.0001176377
-0.0017246459
-0.00011659466
-0.0016942788
-0.00011454423
-0.0016619881
-0.0001108116
-0.0016266705
-0.00010450471
-0.0015870082
-9.4574736e-05
-0.0015418697
-7.9919114e-05
-0.0014909651
-5.9538831e-05
-0.0014349864
-3.320773e-05
-0.0013744816
-3.7543882e-06
2.6206172e-05
-0.0018387605
-0.00014636163
-0.0018103362
-0.00014607509
-0.0017814103
-0.00014540904
-0.0017515037
-0.00014394272
-0.0017198452
-0.00014101898
-0.0016853222
-0.00013570451
-0.0016465198
-0.00012686357
-0.0016018991
-0.00011333918
-0.0015502088
-9.4175859e-05
-0.0014912074
-6.8889996e-05
-0.001426298
-3.7956831e-05
-0.001357971
-3.8715912e-06
-0.0012858883
3.5500082e-05
7.3028625e-05
-0.0018382363
-0.0001741281
-0.0018089956
-0.00017332035
-0.0017783372
-0.00017152974
-0.0017451306
-0.00016781496
-0.0017078355
-0.00016092599
-0.0016646628
-0.00014940524
-0.0016139353
-0.00013192325
-0.0015545971
-0.0001077117
-0.0014868531
-7.7026318e-05
-0.0014127335
-4.127761e-05
-0.0013358423
-3.0766603e-06
-0.0012571007
4.2837652e-05
-0.0011768757
8.9404652e-05
0.00012777673
-0.0018368747
-0.0018056408
-0.00019962781
-0.0017710467
-0.00019558212
-0.001730973
-0.00018771653
-0.0016831172
-0.00017417754
-0.0016256181
-0.00015332686
-0.001557797
-0.00012442045
-0.0014806996
-8.8183611e-05
-0.0013971125
-4.6841304e-05
-0.0013109677
-3.6694029e-06
-0.0012237944
4.778581e-05
-0.0011390915
0.00010103672
-0.0010586508
0.00014840883
0.00018570889
-0.0017987365
-0.00022464616
-0.0017569093
-0.00021705697
-0.0017053573
-0.00020321942
-0.0016417209
-0.00018103944
-0.0015654604
-0.00014939814
-0.0014784489
-0.00010886345
-0.0013844602
-6.176417e-05
-0.0012879488
-1.1689226e-05
-0.0011906414
4.4310692e-05
-0.0010980799
0.00010461647
-0.0010156953
0.00016041958
-0.00093937157
0.00020800871
0.0002440208
-0.001787366
-0.00024871176
-0.0017349851
-0.00023698263
-0.001668217
-0.00021681883
-0.0015858607
-0.00018641498
-0.0014898996
-0.00014551302
-0.0013848917
-9.5606614e-05
-0.0012761214
-3.9464557e-05
-0.0011671446
1.9512523e-05
-0.0010626908
8.7716248e-05
-0.0009717042
0.00015374704
-0.00089405202
0.00021412822
-0.0008222938
0.00026405085
0.00030018089
-0.0017729599
-0.0017087081
-0.00025854183
-0.0016262643
-0.00023435666
-0.0015262878
-0.00019948484
-0.0014130446
-0.00015408283
-0.0012924134
-9.9375763e-05
-0.0011699316
-3.715508e-05
-0.0010504954
3.0594808e-05
-0.00094269564
0.00010602177
-0.00085262784
0.00018142851
-0.00077731727
0.00025180779
-0.0007092848
0.00030871759
0.00034709276
-0.0016866131
-0.00028582881
-0.0015927384
-0.00026268725
-0.0014806455
-0.00023039614
-0.0013554694
-0.00018895291
-0.0012230246
-0.00013825308
-0.0010886781
-7.7667119e-05
-0.00096034797
-8.0496549e-06
-0.00084530511
7.5339242e-05
-0.00074905259
0.00016548646
-0.00067092005
0.00025418891
-0.00060639975
0.00032634797
0.00036876453
-0.0016792348
-0.00032085074
-0.0015829765
-0.00030489441
-0.0014691161
-0.00028399248
-0.0013419425
-0.00025826766
-0.0012053721
-0.00022606702
-0.0010630766
-0.00018302824
-0.00092210182
-0.00012400837
-0.00079098338
-4.6712893e-05
-0.00067668475
5.865843e-05
-0.00059003083
0.00018227571
-0.00053516787
0.00028475616
0.00034188974
-0.0016924092
-0.0016055649
-0.00035550202
-0.0015042615
-0.00035170672
-0.0013910068
-0.00035127765
-0.0012655256
-0.00035325297
-0.0011254035
-0.00035063522
-0.00097157909
-0.00033058758
-0.00081585981
-0.00027859756
-0.00067505391
-0.00018381194
-0.00056423715
-5.1537407e-05
-0.000525908
0.00012948062
0.00026250804
-0.001651796
-0.00040237567
-0.0015739615
-0.00041256534
-0.0014891436
-0.00043416635
-0.0013941537
-0.00047070215
-0.0012786615
-0.00051796047
-0.0011305251
-0.00055737762
-0.00095409503
-0.00055602333
-0.00076844217
-0.00050043281
-0.00063449707
-0.00035510828
-0.00057697631
-0.00013344033
7.2807005e-05
-0.0016991411
-0.00043866267
-0.00164373
-0.00045450194
-0.001586351
-0.00048469401
-0.0015241492
-0.00053485491
-0.0014442025
-0.00060235038
-0.0013255216
-0.00066492065
-0.0011615948
-0.00068383484
-0.00096556417
-0.00066374276
-0.00072199238
-0.00058594223
-0.00063136302
-0.00029896601
2.7213389e-05
-0.0017337506
-0.0016937561
-0.00048502599
-0.0016526397
-0.00051486072
-0.00160796
-0.00055866883
-0.0015487363
-0.00060920363
-0.0014532383
-0.00064908411
-0.0012920097
-0.00067374513
-0.0010827052
-0.00067151153
-0.00089077712
-0.00061632521
-0.00058292441
-0.00046223634
-0.00013824469
2.4403249e-05
-0.00016356761
4.8180487e-05
-0.00048574648
6.9685692e-05
-0.0006337119
9.1580903e-05
-0.00068656257
0.00011373736
-0.00068531969
0.00013638546
-0.00065865012
0.00015917213
-0.00062288594
0.00018145861
-0.00057665028
0.00020323931
-0.00053484319
-0.00050518998
2.6569667e-05
-0.00018776813
4.9348066e-05
-0.00050697933
7.0586264e-05
-0.00064968274
9.2160052e-05
-0.00070102327
0.00011410728
-0.00069748003
0.00013668339
-0.00066813573
0.0001596083
-0.00063540464
0.00018199859
-0.00059452647
0.00020373482
-0.00055438436
-0.00052526746
2.7863922e-05
-0.00021322257
5.0060887e-05
-0.00052724351
7.1183614e-05
-0.00066560857
9.2770621e-05
-0.00071587945
0.00011466339
-0.00071059918
0.0001371285
-0.00067818861
0.00016006227
-0.00064730315
0.00018254084
-0.00061148722
0.00020424451
-0.00057364009
-0.00054526201
2.8943262e-05
-0.0002389361
5.080455e-05
-0.0005465645
7.1803167e-05
-0.00068103289
9.3398359e-05
-0.00073088845
0.00011529175
-0.00072452995
0.0001376594
-0.00068900484
0.00016053739
-0.00065883823
0.00018305547
-0.00062723288
0.00020472592
-0.00059257716
0.00022567327
-0.00056518694
-0.00054795281
2.9760113e-05
-0.00026474336
5.1418599e-05
-0.0005650882
7.2323623e-05
-0.0006960632
9.4016623e-05
-0.00074614465
0.00011600982
-0.00073924489
0.00013829887
-0.00070071189
0.00016105615
-0.00067026883
0.00018356411
-0.00064206818
0.00020519894
-0.00061107195
0.000226029
-0.00058493435
-0.00056790563
3.0401966e-05
-0.00029057866
5.1975626e-05
-0.00058291115
7.2831358e-05
-0.00071075869
9.4677732e-05
-0.00076168004
0.00011682336
-0.00075474888
0.00013904261
-0.00071333402
0.00016162714
-0.00068177648
0.00018405551
-0.00065624889
0.00020564808
-0.00062909161
0.00022637107
-0.00060437712
-0.00058780319
3.0904708e-05
-0.00031635744
5.2477774e-05
-0.00060020522
7.3330124e-05
-0.00072528113
9.5391854e-05
-0.00077764413
0.0001177262
-0.00077110425
0.00013988145
-0.00072695373
0.00016226427
-0.0006935083
0.00018454281
-0.00066984519
0.00020607035
-0.00064593783
0.0002266951
-0.00062355445
-0.00060763345
3.1312436e-05
-0.00034195179
5.2962909e-05
-0.00061715957
7.3849795e-05
-0.00073973086
9.6175169e-05
-0.00079414359
0.00011870878
-0.00078826789
0.00014080169
-0.0007416749
0.00016296879
-0.00070562516
0.0001850445
-0.00068307934
0.00020645601
-0.00066215628
0.00022699412
-0.00064223078
-0.00062730672
3.1657334e-05
-0.00036729465
5.3444614e-05
-0.0006339612
7.4388212e-05
-0.00075417198
9.7013363e-05
-0.00081124233
0.00011973946
-0.0008060952
0.00014177506
-0.00075749618
0.00016373464
-0.00071834147
0.000185598
-0.00069614732
0.00020684541
-0.00067778107
0.00022726773
-0.00066033762
-0.00064674723
3.1949743e-05
-0.00039237313
5.3926612e-05
-0.00065075165
7.4933905e-05
-0.00076860113
9.7884458e-05
-0.00082899061
0.00012077673
-0.00082437567
0.00014275545
-0.00077419081
0.00016453989
-0.00073181946
0.00018620871
-0.00070926724
0.00020726745
-0.00069295158
0.0002275386
-0.00067790544
-0.00066587143
3.21878e-05
-0.00041731288
5.4404084e-05
-0.00066771052
7.5472755e-05
-0.00078310931
9.8767548e-05
-0.00084727688
0.00012178267
-0.00084285478
0.00014368737
-0.00079135117
0.00016534926
-0.00074600478
0.00018687528
-0.00072261367
0.00020773621
-0.00070775465
0.00022782415
-0.00069496648
-0.00068463061
3.2399302e-05
-0.00044243978
5.4892519e-05
-0.00068508584
7.6012531e-05
-0.00079782486
9.9654689e-05
-0.00086583061
0.00012274514
-0.00086144674
0.00014453506
-0.0008086833
0.00016612709
-0.00076069416
0.00018759392
-0.0007362117
0.00020826055
-0.00072236324
0.00022813929
-0.00071160546
-0.00070304365
3.2664609e-05
-0.00046799557
5.5437592e-05
-0.00070290394
7.6593806e-05
-0.00081271854
0.00010055749
-0.00088455543
0.00012368937
-0.00088025687
0.00014531349
-0.00082614595
0.00016684926
-0.00077577308
0.00018833504
-0.00075004459
0.00020882697
-0.00073696273
0.00022847853
-0.00072800858
-0.00072121874
3.3069123e-05
-0.0004945299
5.6060373e-05
-0.00072133572
7.7255622e-05
-0.00082817436
0.00010146399
-0.00090400204
0.0001245979
-0.00089953994
0.00014605058
-0.00084409246
0.00016749221
-0.00079158135
0.00018898822
-0.00076454271
0.0002093455
-0.00075184152
0.00022878459
-0.00074441525
-0.00052766944
0.010041951
-0.010132233
-0.00052265997
0.0079179444
-0.007882826
-0.00060361769
0.0083553649
-0.0083812722
-0.00056660203
0.0082442051
-0.0082843056
-0.00052654985
0.0082471797
-0.0082882792
-0.00048540258
0.0082468504
-0.0082880186
-0.00044423603
0.008246854
-0.0082880208
-0.00040306926
0.008246854
-0.0082880208
-0.00036190252
0.0082468542
-0.0082880209
-0.00032073574
0.008246854
-0.0082880208
-0.000279569
0.008246854
-0.0082880208
-0.00023840222
0.008246854
-0.0082880208
-0.00019723544
0.0082468541
-0.0082880209
0.0082468541
-0.00015606871
-0.0082880208
-0.00061885288
0.0098833194
-0.00055587137
0.0079140503
-0.00060614123
0.0083110125
-0.00056660736
0.0082029175
-0.00052654496
0.0082060811
-0.00048540127
0.0082056835
-0.00044423605
0.0082056874
-0.0004030693
0.0082056873
-0.00036190252
0.0082056874
-0.00032073574
0.0082056873
-0.000279569
0.0082056873
-0.00023840222
0.0082056873
-0.00019723549
0.0082056874
0.0082056873
-0.00015606866
-0.00068632591
0.0096963297
-0.00059025023
0.0078912572
-0.00060845676
0.0082533996
-0.00056680336
0.0081613246
-0.00052655093
0.0081649333
-0.00048540037
0.0081645154
-0.00044423599
0.0081645209
-0.0004030693
0.0081645205
-0.00036190252
0.0081645206
-0.00032073574
0.0081645205
-0.00027956896
0.0081645205
-0.00023840222
0.0081645205
-0.00019723544
0.0081645206
0.0081645205
-0.00015606871
-0.00071852127
0.0094616378
-0.00061467308
0.0078722603
-0.00060977739
0.0081917785
-0.00056704812
0.0081200207
-0.00052656244
0.0081237293
-0.00048540045
0.0081233466
-0.00044423599
0.0081233543
-0.00040306925
0.0081233537
-0.00036190248
0.0081233538
-0.00032073578
0.0081233538
-0.000279569
0.0081233538
-0.00023840222
0.0081233538
-0.00019723544
0.0081233538
0.0081233538
-0.00015606866
-0.00071910589
0.0091980406
-0.00062932984
0.0078684175
-0.00061027582
0.0081319498
-0.00056727383
0.0080791304
-0.00052657183
0.0080824873
-0.00048540092
0.0080821787
-0.00044423601
0.0080821875
-0.0004030693
0.008082187
-0.00036190252
0.0080821871
-0.00032073574
0.008082187
-0.00027956896
0.008082187
-0.00023840222
0.008082187
-0.00019723544
0.0080821871
0.008082187
-0.00015606871
-0.00070572091
0.0089135022
-0.00063679169
0.0078729736
-0.00061023794
0.0080756406
-0.0005674442
0.0080385402
-0.00052657653
0.0080412377
-0.00048540151
0.0080410124
-0.00044423608
0.0080410207
-0.0004030693
0.0080410202
-0.00036190252
0.0080410203
-0.00032073574
0.0080410202
-0.000279569
0.0080410202
-0.00023840222
0.0080410202
-0.00019723549
0.0080410203
0.0080410202
-0.00069508191
0.0086291712
-0.00064174466
0.0078767156
-0.00060996082
0.008022507
-0.00056755746
0.0079980502
-0.00052657718
0.0079999988
-0.00048540199
0.0079998473
-0.00044423605
0.0079998538
-0.00040306925
0.0079998534
-0.00036190252
0.0079998535
-0.00032073574
-0.000279569
-0.00023840222
-0.00019723544
-0.00069093818
0.0083740366
-0.00064535999
0.0078748082
-0.00060965354
0.0079725864
-0.00056763106
0.0079574983
-0.00052657567
0.0079587763
-0.00048540233
-0.00044423605
-0.0004030693
-0.00069051557
0.008164379
-0.00064759022
0.0078647951
-0.00060939211
-0.00056767756
-0.00069108124
1.3387977e-05
0.0030155007
3.502825e-05
0.0029226085
5.1207996e-05
0.0028355332
6.1435086e-05
0.0027630408
6.597718e-05
0.0027092544
6.4734384e-05
0.0026767909
5.7925514e-05
0.0026715607
4.5370496e-05
0.0026970976
3.0884358e-05
0.0027586458
1.1752506e-05
0.0028302587
-1.0773033e-06
0.0029495101
0.0029949547
-3.7255557e-05
0.003176339
-1.8777643e-05
0.0031144326
-3.5026843e-06
0.0030527671
7.8163677e-06
0.0029977852
1.493686e-05
0.0029534398
1.7364964e-05
0.0029234717
1.5021834e-05
0.0029136792
8.0072208e-06
0.0029275926
-8.526869e-07
0.0029670022
-1.3383857e-05
0.0030157697
-2.055804e-05
0.0030938726
0.0031209357
-7.2470749e-05
0.0032714326
-5.816945e-05
0.0032355985
-4.5248697e-05
0.0031972679
-3.449179e-05
0.0031604
-2.6442429e-05
0.0031281004
-2.1745987e-05
0.003103961
-2.0686552e-05
0.0030929273
-2.3147008e-05
0.0030981169
-2.7172235e-05
0.0031201002
-3.3734639e-05
0.0031495355
-3.6606972e-05
0.003196254
0.0032108307
-0.00010327465
0.003332481
-9.3317959e-05
0.0033183396
-8.2960414e-05
0.0033004251
-7.2917999e-05
0.0032797192
-6.3784511e-05
0.0032581527
-5.6108327e-05
0.0032376576
-5.0518354e-05
0.0032208926
-4.7374598e-05
0.003211463
-4.6600214e-05
0.0032118035
-4.7053827e-05
0.0032222083
-4.9069973e-05
0.0032378409
-4.8793863e-05
0.0032630001
0.0032694895
-0.0001110915
0.0033423566
-0.00010403614
0.0033367068
-9.6548738e-05
0.0033289723
-8.8944087e-05
0.003319274
-8.1566886e-05
0.0033083092
-7.4813925e-05
0.0032970174
-6.9165652e-05
0.0032869715
-6.4947606e-05
0.0032803997
-6.2155013e-05
0.0032789479
-6.0201837e-05
0.0032828928
-5.915299e-05
0.0032900552
-5.6807396e-05
0.0033020737
0.0033039711
-0.00011946095
0.0033437622
-0.00011431278
0.0033429635
-0.00010880413
0.0033410256
-0.00010300893
0.0033381386
-9.7026959e-05
0.0033341936
-9.1011626e-05