/*--------------------------------*- C++ -*----------------------------------*\
| =========                 |                                                 |
| \\      /  F ield         | OpenFOAM: The Open Source CFD Toolbox           |
|  \\    /   O peration     | Version:  2206                                  |
|   \\  /    A nd           | Website:  www.openfoam.com                      |
|    \\/     M anipulation  |                                                 |
\*---------------------------------------------------------------------------*/
FoamFile
{
    version     2.0;
    format      ascii;
    arch        "LSB;label=32;scalar=64";
    class       volScalarField;
    location    "0.01";
    object      rho;
}
// * * * * * * * * * * * * * * * * * * * * * * * * * * * * * * * * * * * * * //

dimensions      [1 -3 0 0 0 0 0];

internalField   nonuniform List<scalar> 
1396
(
0.99999904
0.99999904
0.99999904
0.99999904
0.99999904
0.99999904
0.99999904
0.99999904
0.99999904
0.99999904
0.99999904
0.99999904
0.99999904
0.99999904
0.99999904
0.99999904
0.99999904
0.99999904
0.99999904
0.99999904
0.99999904
0.99999904
0.99999904
0.99999904
0.99999904
0.99999904
0.99999904
0.99999904
0.99999904
0.99999904
0.99999904
0.99999904
0.99999904
0.99999904
0.99999904
0.99999904
0.99999904
0.99999904
0.99999904
0.99999904
0.99999904
0.99999904
0.99999904
0.99999904
0.99999904
0.99999904
0.99999904
0.99999904
0.99999904
0.99999904
0.99999904
0.99999904
0.99999902
0.99999891
0.99999838
0.99999517
0.99999904
0.99999904
0.99999904
0.99999904
0.99999904
0.99999904
0.99999904
0.99999904
0.99999904
0.99999904
0.99999904
0.99999902
0.99999892
0.99999818
0.99999904
0.99999904
0.99999904
0.99999904
0.99999904
0.99999904
0.99999904
0.99999904
0.99999904
0.99999904
0.99999904
0.99999904
0.99999902
0.99999886
0.99999904
0.99999904
0.99999904
0.99999904
0.99999904
0.99999904
0.99999904
0.99999904
0.99999904
0.99999904
0.99999904
0.99999904
0.99999904
0.99999901
0.99999904
0.99999904
0.99999904
0.99999904
0.99999904
0.99999904
0.99999904
0.99999904
0.99999904
0.99999904
0.99999904
0.99999904
0.99999904
0.99999904
0.99999904
0.99999904
0.99999904
0.99999904
0.99999904
0.99999904
0.99999904
0.99999904
0.99999904
0.99999904
0.99999904
0.99999904
0.99999904
0.99999904
0.99999904
0.99999904
0.99999904
0.99999904
0.99999904
0.99999904
0.99999904
0.99999904
0.99999904
0.99999904
0.99999904
0.99999904
0.99999904
0.99999904
0.99999904
0.99999904
0.99999904
0.99999904
0.99999904
0.99999904
0.99999904
0.99999904
0.99999904
0.99999904
0.99999904
0.99999904
0.99999904
0.99999904
0.99999904
0.99999904
0.99999904
0.99999904
0.99999904
0.99999904
0.99999904
0.99999904
0.99999904
0.99999904
0.99999904
0.99999904
0.99999904
0.99999904
0.99999904
0.99999904
0.99999904
0.99999904
0.99999904
0.99999904
0.99999904
0.99999904
0.99999904
0.99999904
0.99999904
0.99999904
0.99999904
0.99999904
0.99999904
0.99999904
0.99999904
0.99999904
0.99999904
0.99999904
0.99999904
0.99999904
0.99999904
0.99999904
0.99999904
0.99999904
0.99999904
0.99999904
0.99999904
0.99999904
0.99999904
0.99999904
0.99999904
0.99999904
0.99999904
0.99999904
0.99999904
0.99999904
0.99999904
0.99999904
0.99999904
0.99999904
0.99999904
0.99999904
0.99999904
0.99999904
0.99999904
0.99999904
0.99999904
0.99999904
0.99999904
0.99999904
0.99999904
0.99999904
0.99999904
0.99999904
0.99999904
0.99999904
0.99999904
0.99999904
0.99999904
0.99999904
0.99999904
0.99999904
0.99999904
0.99999904
0.99999904
0.99999904
0.99999904
0.99999904
0.99999904
0.99999904
0.99999904
0.99999904
0.99999904
0.99999904
0.99999904
0.99999904
0.99999904
0.99999904
0.99999904
0.99999904
0.99999904
0.99999904
0.99999904
0.99999904
0.99999904
0.99999904
0.99999904
0.99999904
0.99999904
0.99999904
0.99999904
0.99999904
0.99999904
0.99999904
0.99999904
0.99999904
0.99999904
0.99999904
0.99999904
0.99999904
0.99999904
0.99999904
0.99999904
0.99999904
0.99999904
0.99999904
0.99999904
0.99999904
0.99999904
0.99999904
0.99999904
0.99999904
0.99999904
0.99999904
0.99999904
0.99999904
0.99999904
0.99999904
0.99999904
0.99999904
0.99999904
0.99999904
0.99999904
0.99999904
0.99999904
0.99999904
0.99999904
0.99999904
0.99999904
0.99999904
0.99999904
0.99999904
0.99999904
0.99999904
0.99999904
0.99999904
0.99999904
0.99999904
0.99999904
0.99999904
0.99999904
0.99999904
0.99999904
0.99999904
0.99999904
0.99999904
0.99999904
0.99999904
0.99999904
0.99999904
0.99999904
0.99999904
0.99999904
0.99999904
0.99999904
0.99999904
0.99999904
0.99999904
0.99999904
0.99999904
0.99999904
0.99999904
0.99999904
0.99999904
0.99999904
0.99999904
0.99999904
0.99999904
0.99999904
0.99999904
0.99999904
0.99999904
0.99999904
0.99999904
0.99999904
0.99999904
0.99999904
0.99999904
0.99999904
0.99999904
0.99999904
0.99999904
0.99999904
0.99999904
0.99999904
0.99999904
0.99999904
0.99999904
0.99999904
0.99999904
0.99999904
0.99999904
0.99999904
0.99999904
0.99999904
0.99999904
0.99999904
0.99999904
0.99999904
0.99999904
0.99999904
0.99999904
0.99999904
0.99999904
0.99999904
0.99999904
0.99999904
0.99999904
0.99999904
0.99999904
0.99999904
0.99999904
0.99999904
0.99999904
0.99999904
0.99999904
0.99999904
0.99999904
0.99999904
0.99999904
0.99999904
0.99999904
0.99999904
0.99999904
0.99999904
0.99999904
0.99999904
0.99999904
0.99999903
0.99999903
0.99999904
0.99999904
0.99999904
0.99999904
0.99999904
0.99999904
0.99999904
0.99999904
0.99999904
0.99999904
0.99999904
0.99999904
0.99999904
0.9566926
0.92784938
0.89344842
0.85638823
0.81852221
0.78085901
0.74495608
0.7122365
0.6933497
0.68710602
0.71268439
0.73914209
0.7272624
0.65867058
0.94724608
0.91627355
0.88084722
0.84354775
0.80580275
0.76852885
0.73347477
0.70187664
0.6852387
0.6851371
0.71111841
0.73247159
0.71892963
0.65073575
0.93880122
0.90636106
0.87028655
0.83284483
0.79518294
0.75817379
0.72371805
0.69272988
0.67840472
0.68312266
0.70888388
0.72572042
0.71125042
0.64408287
0.93216268
0.89877926
0.86226937
0.82468956
0.78701256
0.75008738
0.71592691
0.68511977
0.67271094
0.68054124
0.70584587
0.71938419
0.7044181
0.63765072
0.92755649
0.89352588
0.85660776
0.81877045
0.78088019
0.74377323
0.70959581
0.67848638
0.6671658
0.67664491
0.70143177
0.71292999
0.69738566
0.63012795
0.9250379
0.8905078
0.85309769
0.81480396
0.77642555
0.73878077
0.70406958
0.67204939
0.66064784
0.67057667
0.69505143
0.7063125
0.68981447
0.62144616
0.92514235
0.89029958
0.8523443
0.8134214
0.7742967
0.73575051
0.6999406
0.66622457
0.65328971
0.66232629
0.68693112
0.70054186
0.68289715
0.61285751
0.92811501
0.89318575
0.85466054
0.81496313
0.77487458
0.73511717
0.69765453
0.66167039
0.64551113
0.65198129
0.67664805
0.69527374
0.6767698
0.60433247
0.93496565
0.90053527
0.86164375
0.82112545
0.77991905
0.73874203
0.69923891
0.66151381
0.64048772
0.64229855
0.66744489
0.69251509
0.67341185
0.59684114
0.94198909
0.90768308
0.86784408
0.82589985
0.78297856
0.73970895
0.6973453
0.65601612
0.62808365
0.62236855
0.6447212
0.67716051
0.65745918
0.58249516
0.95565262
0.92477305
0.8865308
0.84478847
0.80135001
0.75713647
0.71351639
0.67241694
0.64092138
0.62848543
0.65337587
0.70067402
0.68732912
0.61520859
0.95882743
0.92678829
0.88489089
0.83912603
0.79182185
0.74340186
0.69406688
0.64346136
0.59690783
0.57996159
0.5910226
0.65145518
0.61647553
0.58379361
0.99999871
0.99999762
0.99999431
0.99998526
0.99996244
0.99990844
0.99978637
0.99952037
0.99897169
0.9979565
0.99617096
0.99322455
0.98876025
0.98290001
0.99999715
0.99999143
0.99997529
0.99993224
0.99982994
0.9995989
0.99910307
0.99810626
0.99623466
0.99298685
0.98783631
0.98036614
0.97047972
0.9590934
0.99999223
0.99997281
0.9999181
0.9997743
0.99943145
0.99868475
0.99719381
0.99445579
0.98983167
0.98268621
0.97263926
0.95976777
0.94477887
0.92765465
0.99997808
0.9999177
0.99974522
0.99929985
0.99828849
0.99623705
0.99248916
0.98627486
0.97688696
0.9640255
0.94820292
0.93059435
0.90975409
0.88664072
0.99994043
0.99976544
0.99928061
0.99809377
0.99558024
0.9908969
0.98312497
0.97152453
0.95589871
0.93700345
0.91645859
0.89292251
0.86684022
0.84049664
0.99941016
0.99825171
0.99560674
0.99043672
0.98162473
0.96834137
0.95041008
0.92858529
0.90458563
0.87763132
0.84917604
0.82053284
0.79182104
0.9987404
0.99645067
0.99159435
0.98283952
0.96913421
0.95013832
0.92635062
0.89905023
0.86869843
0.83622658
0.8048887
0.77337809
0.7418357
0.99779254
0.99407992
0.98676403
0.9745035
0.95660868
0.93320813
0.90491051
0.87254409
0.83650397
0.79999229
0.76431397
0.72759913
0.69202654
0.99197466
0.98289392
0.96858077
0.94873599
0.92363826
0.89346481
0.85812166
0.81929233
0.77814914
0.73511529
0.68943997
0.64789334
0.99119633
0.98191475
0.96799017
0.94951515
0.9268289
0.89967789
0.86705474
0.82899624
0.78473894
0.73199665
0.67464539
0.62623271
0.99228942
0.98444831
0.97321352
0.95913774
0.94291668
0.92443901
0.90236388
0.87446323
0.83923185
0.79018825
0.70896292
0.64818829
0.98909248
0.98126633
0.972082
0.96295832
0.95505294
0.94776905
0.93828343
0.92562733
0.90038097
0.85942359
0.78293281
0.9936231
0.98848105
0.98226955
0.97597647
0.96986001
0.96211243
0.95119549
0.94753584
0.96522147
0.9779377
0.9333664
0.99713644
0.99419226
0.98973583
0.98224062
0.96671514
0.93317076
0.87182846
0.79119571
0.74190177
0.77115631
0.86874116
0.55482313
0.65300048
0.72256672
0.789234
0.85326221
0.91277305
0.95750459
0.98064601
0.99099002
0.99551801
0.57038592
0.66711711
0.73183402
0.79402659
0.85219735
0.90763007
0.95390523
0.97989056
0.99122228
0.99603789
0.57365325
0.673207
0.73553823
0.79621656
0.85124938
0.90336029
0.94987391
0.97861824
0.99131498
0.99643564
0.57656775
0.68067767
0.7403373
0.79910433
0.85131049
0.89993448
0.94582012
0.97684952
0.99115716
0.99677037
0.99883521
0.57724584
0.68670607
0.74381938
0.80137863
0.85191371
0.89746228
0.94196891
0.97459703
0.99085595
0.9969887
0.99908754
0.5765642
0.69208658
0.74703084
0.80368621
0.8531973
0.89592574
0.93853081
0.97192779
0.99015573
0.99711121
0.99931741
0.57483944
0.69663884
0.74979013
0.80599766
0.85510667
0.89525655
0.93563104
0.96910535
0.98896709
0.99707066
0.999484
0.57228556
0.70074653
0.75240402
0.80857945
0.85765323
0.89548925
0.93334474
0.9663343
0.98730741
0.9967136
0.99957257
0.56912996
0.70462525
0.75485111
0.81145576
0.86066914
0.89660194
0.93171983
0.96378201
0.98547544
0.99601167
0.99950533
0.56544281
0.70838323
0.75705122
0.81458403
0.86392164
0.89839759
0.93075444
0.9615215
0.98357969
0.99507944
0.99924591
0.56103914
0.71202982
0.75888775
0.81785119
0.86718622
0.90053336
0.93036632
0.95966459
0.98174336
0.99398697
0.99882181
0.55601181
0.71579857
0.76061325
0.82120302
0.87044217
0.90283813
0.93048323
0.95843301
0.98020188
0.9929077
0.9983135
0.55156638
0.72039873
0.76293419
0.82487581
0.87411717
0.90563009
0.9312717
0.95802594
0.97921744
0.99203476
0.99782878
0.55018911
0.72636624
0.76677297
0.82938559
0.8786679
0.90935297
0.9331501
0.95854444
0.97890473
0.99148696
0.99744033
1.1079381
0.98461997
1.0124485
1.0001694
1.0000512
0.99999961
0.99999905
0.99999904
0.99999904
0.99999904
0.99999904
0.99999904
0.99999904
0.99999904
1.0711416
0.98019499
1.0104893
1.0000433
1.0000522
0.99999973
0.99999908
0.99999904
0.99999904
0.99999904
0.99999904
0.99999904
0.99999904
0.99999904
1.0570205
0.97847412
1.0076176
0.99989125
1.0000467
0.99999947
0.99999911
0.99999904
0.99999904
0.99999904
0.99999904
0.99999904
0.99999904
0.99999904
1.0541042
0.98094209
1.0050904
0.99980661
1.0000364
0.999999
0.99999911
0.99999904
0.99999904
0.99999904
0.99999904
0.99999904
0.99999904
0.99999904
1.0536688
0.98556389
1.0032895
0.99979667
1.0000252
0.99999865
0.9999991
0.99999904
0.99999904
0.99999904
0.99999904
0.99999904
0.99999904
0.99999904
1.0478275
0.99011385
1.0021152
0.99983226
1.0000159
0.99999854
0.99999908
0.99999904
0.99999904
0.99999904
0.99999904
0.99999904
0.99999904
0.99999904
1.0357659
0.99353466
1.0012891
0.99988146
1.0000092
0.99999861
0.99999907
0.99999904
0.99999904
0.99999904
0.99999904
0.99999904
0.99999904
0.99999904
1.0228162
0.9959069
1.0007307
0.99992524
1.0000048
0.99999874
0.99999906
0.99999904
0.99999904
1.0127844
0.99755443
1.0003853
0.99995756
1.0000021
1.0063155
0.99866263
0.97553525
0.96890192
0.96268367
0.95755948
0.95387412
0.95184047
0.95191332
0.95435119
0.95946489
0.96522173
0.97407206
0.97842863
0.98748273
0.98322151
0.97898397
0.97524133
0.97229837
0.970445
0.97010003
0.9715126
0.97469188
0.97854207
0.98404043
0.98665368
0.99437447
0.99200708
0.98948352
0.98708109
0.98502398
0.98357546
0.9830819
0.98374546
0.98551871
0.98778579
0.99094604
0.99219054
0.99869097
0.99780502
0.99668341
0.99538853
0.99404872
0.99279659
0.99181639
0.99134985
0.99154626
0.99237949
0.9935313
0.9951529
0.99565243
0.99958126
0.99925097
0.99879714
0.9982273
0.99758497
0.99693106
0.9963679
0.99603623
0.99603174
0.99635089
0.99685286
0.99758181
0.99773001
0.99992441
0.99987867
0.99977321
0.99961503
0.99939884
0.99913335
0.99883964
0.99856365
0.99837409
0.99832288
0.99841527
0.99859986
0.9988825
0.9988889
0.99997911
0.99996607
0.99993598
0.99988886
0.99981819
0.99972272
0.99960758
0.99948959
0.99939716
0.99935439
0.99936713
0.99942086
0.9995122
0.99948021
0.99999422
0.99999068
0.99998236
0.99996872
0.99994829
0.99991914
0.99987986
0.99983515
0.99979524
0.99977
0.99976344
0.999773
0.99979482
0.99976455
0.99999793
0.99999704
0.99999491
0.99999128
0.99998542
0.99997665
0.99996504
0.99995068
0.99993551
0.99992326
0.99991631
0.9999149
0.99991633
0.99989658
0.9999988
0.99999859
0.99999808
0.99999716
0.99999561
0.99999316
0.99998964
0.99998518
0.99998045
0.99997565
0.99997165
0.9999692
0.99996675
0.99995591
0.99999899
0.99999895
0.99999883
0.99999861
0.99999822
0.99999758
0.9999966
0.99999527
0.9999937
0.99999214
0.99999052
0.99998896
0.99998689
0.9999816
0.99999903
0.99999902
0.999999
0.99999895
0.99999886
0.9999987
0.99999844
0.99999807
0.9999976
0.99999706
0.99999651
0.99999581
0.99999465
0.99999231
0.99999904
0.99999904
0.99999903
0.99999902
0.999999
0.99999896
0.9999989
0.9999988
0.99999867
0.99999851
0.99999831
0.99999805
0.99999752
0.99999656
0.99999904
0.99999904
0.99999904
0.99999904
0.99999903
0.99999903
0.99999901
0.99999899
0.99999895
0.9999989
0.99999883
0.99999872
0.9999985
0.99999808
0.99999904
0.99999904
0.99999904
0.99999904
0.99999904
0.99999904
0.99999904
0.99999904
0.99999904
0.99999904
0.99999904
0.99999904
0.99999904
0.99999904
0.99999904
0.99999904
0.99999904
0.99999904
0.99999904
0.99999904
0.99999904
0.99999904
0.99999904
0.99999904
0.99999904
0.99999904
0.99999904
0.99999904
0.99999904
0.99999904
0.99999904
0.99999904
0.99999904
0.99999904
0.99999904
0.99999904
0.99999904
0.99999904
0.99999904
0.99999904
0.99999904
0.99999904
0.99999904
0.99999904
0.99999904
0.99999904
0.99999904
0.99999904
0.99999904
0.99999904
0.99999904
0.99999904
0.99999904
0.99999904
0.99999904
0.99999904
1.3915711
1.0148225
1.0117804
1.0001584
1.000003
0.99999911
0.99999904
0.99999904
0.99999904
0.99999904
0.99999904
0.99999904
0.99999904
0.99999904
1.3143665
1.0122611
1.007612
1.0000859
1.0000016
0.99999906
0.99999904
0.99999904
0.99999904
0.99999904
0.99999904
0.99999904
0.99999904
0.99999904
1.2642958
1.0092307
1.0051789
1.0000507
1.0000004
0.99999905
0.99999904
0.99999904
0.99999904
0.99999904
0.99999904
0.99999904
0.99999904
0.99999904
1.2220339
1.0073336
1.0036241
1.0000326
0.99999985
0.99999905
0.99999904
0.99999904
0.99999904
0.99999904
0.99999904
0.99999904
0.99999904
0.99999904
0.99999904
0.99999904
0.99999904
0.99999904
0.99999904
0.99999904
0.99999904
0.99999904
0.99999904
0.99999904
0.99999904
0.99999904
0.99999904
0.99999904
0.99999904
0.99999904
0.99999904
0.99999904
0.99999904
0.99999904
0.99999904
0.99999904
0.99999904
0.99999904
0.99999904
0.99999904
0.99999904
0.99999904
0.99999904
0.99999904
0.99999904
0.99999904
0.99999904
0.99999904
0.99999904
0.99999904
0.99999904
0.99999904
0.99999904
0.99999904
0.99999904
0.99999904
0.99999904
0.99999904
0.99999904
0.99999904
0.99999904
0.99999904
0.99999904
0.99999904
0.99999904
0.99999904
0.99999904
0.99999904
0.99999904
0.99999904
0.99999904
0.99999904
0.99999904
0.99999904
0.99999904
0.99999904
0.99999904
0.99999904
0.99999904
0.99999904
0.99999904
0.99999904
0.99999904
0.99999904
0.99999904
0.99999904
)
;

boundaryField
{
    Side
    {
        type            empty;
    }
    Inlet
    {
        type            calculated;
        value           nonuniform List<scalar> 7(0.99999904 0.99999904 0.99999904 0.99999904 0.99999904 0.99999904 0.99999904);
    }
    Airfoil
    {
        type            calculated;
        value           nonuniform List<scalar> 0();
    }
    Outlet
    {
        type            calculated;
        value           nonuniform List<scalar> 0();
    }
    Flap
    {
        type            calculated;
        value           nonuniform List<scalar> 
30
(
0.58961781
0.58125057
0.57399973
0.5668882
0.55899463
0.55018979
0.54123731
0.53214182
0.52380373
0.51262493
0.54394945
0.56440525
0.83244144
0.83214201
0.83132976
0.83036452
0.82921762
0.82793767
0.82656213
0.82516013
0.82383781
0.82244509
0.82032991
0.81701955
0.81379574
0.81407782
1.5177466
1.4411766
1.3701869
1.3110837
)
;
    }
    procBoundary4to3
    {
        type            processor;
        value           nonuniform List<scalar> 
142
(
0.99999904
0.99999904
0.99999904
0.99999904
0.99999904
0.99999904
0.99999904
0.99999904
0.99999904
0.99999904
0.99999904
0.99999902
0.99999891
0.99999832
0.99999572
0.99998263
0.99998263
0.99999904
0.99999904
0.99999904
0.99999904
0.99999904
0.99999904
0.99999904
0.99999904
0.99999904
0.99999904
0.99999904
0.99999904
0.99999904
0.99999904
0.99999904
0.99999904
0.99999904
0.99999904
0.99999904
0.99999904
0.99999904
0.99999904
0.99999904
0.99999904
0.99999904
0.99999904
0.99999904
0.99999904
0.99999904
0.99999904
0.99999904
0.99999904
0.99999904
0.99999904
0.99999904
0.99999904
0.99999904
0.99999904
0.99999904
0.99999904
0.99999904
0.99999904
0.99999904
0.99999904
0.99999904
0.99999904
0.96609307
0.93997527
0.90704418
0.87036556
0.83237542
0.7942737
0.75744772
0.72338608
0.70264868
0.69017114
0.71502009
0.74500677
0.73526761
0.66797182
0.98181516
0.99127306
0.99635086
0.99635086
0.99910984
0.99972711
0.99972711
0.99999904
0.99999904
0.99999904
0.99999904
0.99999904
0.99999904
0.99999904
0.99999904
0.99999904
0.99999904
0.99999904
0.99999904
0.99999904
0.99999904
0.99999904
0.99999904
0.99999904
0.99999904
0.99999904
0.99999904
0.99999904
0.99999904
0.99999904
0.99999904
0.99999904
0.99999904
1.1877141
1.0060107
1.0026155
1.0000224
0.99999956
0.99999905
0.99999904
0.99999904
0.99999904
0.99999904
0.99999904
0.99999904
0.99999904
0.99999904
0.99999904
0.99999904
0.99999904
0.99999904
0.99999904
0.99999904
0.99999904
0.99999904
0.99999904
0.99999904
0.99999904
0.99999904
0.99999904
0.99999904
0.99999904
0.99999904
0.99999904
0.99999904
)
;
    }
    procBoundary4to5
    {
        type            processor;
        value           nonuniform List<scalar> 
189
(
0.99999904
0.99999904
0.99999904
0.99999904
0.99999904
0.99999904
0.99999904
0.99999904
0.99999904
0.99999904
0.99999904
0.99999904
0.99999904
0.99999904
0.99999904
0.99999904
0.99999904
0.99999904
0.99999904
0.99999904
0.99999904
0.99999904
0.99999904
0.99999904
0.99999904
0.99999904
0.99999904
0.99999904
0.99999904
0.99999904
0.99999904
0.99999904
0.99999904
0.99999904
0.99999904
0.99999904
0.99999904
0.99999904
0.99999904
0.99999904
0.99999904
0.99999904
0.99999904
0.99999904
0.99999904
0.99999904
0.99999904
0.99999904
0.99999904
0.99999904
0.99999904
0.99999904
0.99999904
0.99999904
0.99999904
0.99999904
0.99999904
0.99999904
0.99999904
0.99999904
0.99999904
0.99999904
0.99999904
0.99999902
0.99999904
0.99999902
0.99999904
0.99999904
0.99999904
0.99999904
0.99999904
0.99999904
0.99999904
0.99999904
0.99999904
0.99999904
0.99999904
0.99999903
0.99999898
0.99999884
0.99999844
0.99984948
0.99999739
0.99984948
0.99966142
0.99936746
0.99687064
0.99687064
0.99643267
0.99682826
0.99467141
0.99467141
0.99707979
0.99885525
0.99786912
0.99786912
0.9982307
0.998546
0.998546
0.99955407
0.99969283
0.9998275
0.99994851
1.0000544
1.0001232
1.0001213
1.0000323
0.999872
0.99968329
0.99950312
1.0026777
0.99999904
0.99999904
0.99999904
0.99999904
0.99999904
0.99999904
0.99999904
0.99999887
0.99999905
0.99999904
0.99999904
0.99999904
1.0001884
0.99997876
0.99999887
1.0000005
1.0026777
1.0001884
0.99935817
0.99999904
0.99999904
0.99999904
0.99999904
0.99999904
0.99999904
0.99999904
0.99999904
0.99999904
0.99999904
0.99999904
0.99999904
0.99999904
0.99999904
0.99999904
0.99999904
0.99999904
0.99999904
0.99999904
0.99999904
0.99999904
0.99999904
0.99999904
0.99999904
0.99999904
0.99999904
0.99999904
0.99999904
0.99999904
0.99999904
0.99999904
0.99999904
0.99999904
0.99999904
0.99999904
0.99999904
0.99999904
0.99999904
0.99999904
0.99999904
0.99999904
0.99999904
0.99999904
0.99999904
0.99999904
0.99999904
0.99999904
0.99999904
0.99999904
0.99999904
0.99999904
0.99999904
0.99999904
0.99999904
0.99999904
0.99999904
0.99999904
0.99999904
0.99999904
)
;
    }
}


// ************************************************************************* //
