/*--------------------------------*- C++ -*----------------------------------*\
| =========                 |                                                 |
| \\      /  F ield         | OpenFOAM: The Open Source CFD Toolbox           |
|  \\    /   O peration     | Version:  2206                                  |
|   \\  /    A nd           | Website:  www.openfoam.com                      |
|    \\/     M anipulation  |                                                 |
\*---------------------------------------------------------------------------*/
FoamFile
{
    version     2.0;
    format      ascii;
    arch        "LSB;label=32;scalar=64";
    class       volScalarField;
    location    "0.01";
    object      T;
}
// * * * * * * * * * * * * * * * * * * * * * * * * * * * * * * * * * * * * * //

dimensions      [0 0 0 1 0 0 0];

internalField   nonuniform List<scalar> 
1396
(
1
1
1
1
1
1
1
1
1
1
1
1
1
1
1
1
1
1
1
1
1
1
1
1
1
1
1
1
1
1
1
1
1
1
1
1
1
1
1
1
1
1
1
1
1
1
1
1
1
1
1
0.99999999
0.99999993
0.99999964
0.99999812
0.99999051
1
1
1
1
1
1
1
1
1
1
0.99999999
0.99999993
0.99999959
0.99999773
1
1
1
1
1
1
1
1
1
1
1
0.99999999
0.99999991
0.99999948
1
1
1
1
1
1
1
1
1
1
1
1
0.99999998
0.99999989
1
1
1
1
1
1
1
1
1
1
1
1
1
0.99999998
1
1
1
1
1
1
1
1
1
1
1
1
1
1
1
1
1
1
1
1
1
1
1
1
1
1
1
1
1
1
1
1
1
1
1
1
1
1
1
1
1
1
1
1
1
1
1
1
1
1
1
1
1
1
1
1
1
1
1
1
1
1
1
1
1
1
1
1
1
1
1
1
1
1
1
1
1
1
1
1
1
1
1
1
1
1
1
1
1
1
1
1
1
1
1
1
1
1
1
1
1
1
1
1
1
1
1
1
1
1
1
1
1
1
1
1
1
1
1
1
1
1
1
1
1
1
1
1
1
1
1
1
1
1
1
1
1
1
1
1
1
1
1
1
1
1
1
1
1
1
1
1
1
1
1
1
1
1
1
1
1
1
1
1
1
1
1
1
1
1
1
1
1
1
1
1
1
1
1
1
1
1
1
1
1
1
1
1
1
1
1
1
1
1
1
1
1
1
1
1
1
1
1
1
1
1
1
1
1
1
1
1
1
1
1
1
1
1
1
1
1
1
1
1
1
1
1
1
1
1
1
1
1
1
1
1
1
1
1
1
1
1
1
1
1
1
1
1
1
1
1
1
1
1
1
1
1
1
1
1
1
1
1
1
1
1
1
1
1
1
1
1
1
1
1
1
1
1
1
1
1
1
0.99999999
0.99999999
0.99999998
0.99999997
0.99999996
0.99999993
1
1
1
1
1
1
1
1
1
1
1
1
1
0.9621972
0.94461976
0.92574543
0.90675103
0.88824437
0.87083632
0.85551616
0.84306576
0.83832286
0.84458276
0.86162761
0.87963604
0.87464293
0.89516343
0.95559232
0.9373469
0.91827932
0.89931544
0.8809911
0.86394804
0.84925785
0.83741987
0.83440917
0.84400012
0.86184806
0.87643985
0.87087866
0.89322059
0.94970257
0.93092987
0.91166177
0.89264186
0.87438557
0.85756365
0.84333313
0.83185462
0.83053958
0.84280273
0.86132495
0.87323615
0.8672069
0.89118925
0.94491732
0.92570601
0.90620272
0.88704246
0.86874053
0.85198867
0.8380541
0.82664143
0.82670476
0.84083481
0.85979211
0.86984445
0.86343753
0.88902621
0.94141587
0.92179695
0.90200087
0.88261216
0.8641547
0.84733791
0.83347802
0.82205843
0.8229949
0.83832716
0.85760403
0.86653816
0.8597891
0.8871129
0.93923879
0.91917924
0.89899295
0.87925322
0.86049556
0.84344174
0.82938339
0.8177681
0.81902031
0.83498777
0.85475717
0.86354073
0.85663137
0.88533782
0.93854792
0.91797199
0.8972466
0.87697471
0.85770293
0.84015824
0.82555477
0.81328739
0.81413434
0.82998146
0.85055374
0.86064977
0.85370847
0.88313726
0.93957091
0.91842054
0.89701901
0.87603885
0.8560386
0.83774474
0.82229077
0.80882015
0.80841096
0.82323663
0.84442355
0.85766106
0.85098983
0.88054481
0.94279955
0.92102967
0.8987241
0.87673286
0.85566467
0.83626808
0.81968262
0.80484232
0.80212282
0.81480271
0.83609123
0.85370105
0.84686006
0.87762672
0.9472696
0.92493848
0.90180958
0.87890134
0.85687913
0.83649282
0.81876585
0.80236604
0.7968997
0.80672471
0.82680898
0.85155375
0.84736227
0.8800501
0.95513437
0.93264275
0.90829614
0.88363951
0.85961514
0.83710337
0.8171474
0.80012182
0.79020979
0.79526399
0.81380719
0.84555939
0.84260251
0.88417077
0.96031082
0.93777213
0.91347388
0.88917463
0.86572664
0.84377565
0.8241714
0.80514735
0.79445842
0.80133914
0.82469086
0.8751449
0.90967061
0.96678901
0.99999648
0.99999054
0.99997647
0.99994432
0.99987444
0.99972857
0.99943768
0.99888897
0.9979079
0.99617196
0.99318307
0.98829276
0.9806299
0.97065378
0.9999866
0.99996379
0.99991009
0.99979045
0.99953529
0.99902037
0.99804665
0.9963274
0.99350478
0.98918935
0.98295922
0.97424118
0.96240113
0.9487285
0.99995585
0.99987925
0.99970128
0.99931444
0.99853789
0.99709772
0.99463172
0.99073455
0.98504346
0.97731358
0.96736595
0.95481842
0.93899922
0.92226094
0.99986387
0.99962816
0.9991008
0.99802314
0.99602959
0.99267639
0.98752862
0.98028685
0.97090578
0.95957088
0.94629496
0.93014241
0.91099519
0.89398283
0.99962003
0.99898907
0.99765685
0.99513261
0.99087036
0.98440488
0.97552997
0.9644178
0.95155079
0.93725778
0.92077251
0.90157069
0.88184116
0.86629092
0.9976528
0.99482797
0.9898858
0.98227113
0.97182512
0.9589164
0.94430322
0.92862364
0.91147862
0.89233516
0.87262357
0.85359203
0.84029044
0.99542068
0.99039847
0.982246
0.97067787
0.95611021
0.93953326
0.92198918
0.90380636
0.88437805
0.86493517
0.84546273
0.8275317
0.81672918
0.99254038
0.98500193
0.97347294
0.95810253
0.93986428
0.92014551
0.90007723
0.88004577
0.86038609
0.84121895
0.8220939
0.8052335
0.79643492
0.98026005
0.96606784
0.94782019
0.92684071
0.90475387
0.8829415
0.8623546
0.84329462
0.82458347
0.80576001
0.78944305
0.78191507
0.97825049
0.96305552
0.94382165
0.92200213
0.89930608
0.87722685
0.85681697
0.83833389
0.82019341
0.80239448
0.78783828
0.78366244
0.98028108
0.96645143
0.94911114
0.92980665
0.9101906
0.89137178
0.87369497
0.8567944
0.83942
0.82167885
0.8104182
0.80814964
0.97515045
0.96221621
0.94843648
0.93524678
0.92273954
0.90970865
0.89556364
0.88206227
0.87180969
0.86103275
0.86168262
0.9850798
0.97680284
0.96825262
0.9606637
0.95428242
0.94896369
0.94680475
0.94637126
0.93281282
0.90367188
0.88384872
0.9929978
0.98830524
0.98351501
0.98129519
0.98644577
1.0065105
1.0485066
1.1044538
1.150727
1.127183
0.98440231
1.5003726
1.3570513
1.2188248
1.144999
1.0978376
1.0493289
1.0129556
0.99684044
0.99324016
0.99465565
1.4589105
1.3317159
1.2064501
1.1419006
1.1024455
1.0582053
1.0197029
1.0002813
0.99532815
0.99580554
1.4491851
1.3236532
1.2032069
1.1424962
1.1069133
1.0661109
1.0269063
1.0043582
0.99748326
0.99704951
1.4401855
1.3134032
1.1981261
1.142025
1.1100613
1.0730172
1.0341122
1.0089379
0.99985985
0.99832683
0.9989902
1.4365069
1.3061639
1.1951666
1.1424104
1.1125362
1.0787871
1.0410791
1.0139302
1.0023381
0.99971191
0.99970145
1.4359852
1.3001728
1.1926908
1.142744
1.1141106
1.0834097
1.0475694
1.0193098
1.005211
1.001155
1.0004054
1.4379009
1.2955657
1.1909937
1.1430632
1.1148249
1.0869454
1.0534336
1.0248367
1.0086144
1.0027027
1.0011412
1.4418678
1.2915717
1.1896183
1.1429893
1.1146601
1.0893442
1.0585699
1.0302939
1.0124214
1.0045584
1.0019269
1.447539
1.2877543
1.1885551
1.1424665
1.1138306
1.0906293
1.062887
1.0354782
1.0163867
1.0067197
1.0028345
1.4545151
1.2836813
1.1877592
1.1414972
1.1125606
1.090999
1.0663399
1.0402658
1.0203411
1.0090596
1.0038909
1.4621617
1.2789421
1.1871652
1.1401309
1.1109805
1.0907935
1.0690149
1.044563
1.0241773
1.0114954
1.0050668
1.4694284
1.2731892
1.1865858
1.1383939
1.1091572
1.0903119
1.0711442
1.0483034
1.0278024
1.0139457
1.0063213
1.4754266
1.2664485
1.1861289
1.136427
1.107177
1.0896364
1.0728646
1.0514003
1.0310386
1.0162878
1.0075877
1.4796327
1.2595426
1.1854613
1.1344057
1.1051156
1.0885561
1.0736985
1.053379
1.033298
1.0180684
1.0086137
1.1040224
1.0149183
1.0038354
1.0002174
1.0000116
1.0000005
1
1
1
1
1
1
1
1
1.0694125
1.0073251
1.0033143
1.0001723
1.000018
1.0000007
1
1
1
1
1
1
1
1
1.0453024
1.0028381
1.002915
1.0001104
1.000018
1.0000006
1
1
1
1
1
1
1
1
1.0325366
0.99970698
1.0025476
1.0000445
1.0000158
1.0000004
1
1
1
1
1
1
1
1
1.0267728
0.99747509
1.0020663
0.99999202
1.0000128
1.0000002
1
1
1
1
1
1
1
1
1.0246757
0.99633444
1.0016094
0.99996147
1.0000096
0.99999998
1
1
1
1
1
1
1
1
1.0236794
0.99608548
1.0011915
0.99995111
1.0000069
0.99999988
1
1
1
1
1
1
1
1
1.0212622
0.99643513
1.0008163
0.9999545
1.0000047
0.99999986
1
1
1
1.0164355
0.99714135
1.0005156
0.99996472
1.000003
1.0106687
0.99795733
0.97594488
0.97042886
0.96530904
0.9610308
0.95779514
0.95568499
0.95494588
0.95579871
0.95874997
0.96250899
0.96945611
0.97279484
0.9860032
0.98190154
0.97789503
0.97437532
0.97155867
0.96959151
0.96875632
0.96927419
0.97146694
0.97429349
0.97940361
0.98169215
0.99271903
0.99004172
0.98726658
0.98467673
0.98246438
0.98080989
0.97999103
0.98021533
0.98163686
0.98357938
0.98696956
0.98847502
0.99789029
0.99667535
0.99516051
0.99347567
0.99178601
0.99023237
0.98898051
0.98826554
0.98826293
0.98904361
0.99022012
0.99225396
0.99310106
0.99922653
0.99867744
0.99794194
0.99705627
0.99609415
0.99513729
0.99430411
0.99376346
0.99364666
0.99399345
0.99460804
0.99569755
0.99607317
0.99984644
0.99975364
0.9995421
0.99923632
0.99883517
0.99836063
0.9978487
0.99736629
0.99701509
0.99688023
0.99698896
0.99725715
0.99776836
0.99787731
0.99995808
0.99992953
0.99986138
0.99975257
0.99959587
0.99939308
0.9991551
0.99891194
0.99871481
0.99861089
0.99861878
0.99870992
0.99891421
0.99890839
0.99998914
0.99998071
0.99996118
0.99992855
0.99987658
0.99980145
0.99970483
0.99959734
0.99950051
0.99943672
0.99941709
0.99943544
0.99950079
0.99946378
0.99999732
0.99999497
0.99998958
0.99998026
0.999965
0.99994164
0.99990792
0.99986597
0.9998238
0.99979054
0.99977193
0.99976832
0.99978144
0.99974732
0.99999937
0.99999875
0.99999733
0.99999478
0.99999044
0.99998353
0.99997327
0.99995947
0.99994331
0.99992809
0.99991666
0.9999102
0.99990829
0.99988538
0.99999986
0.99999971
0.99999935
0.99999868
0.9999975
0.99999553
0.99999248
0.99998824
0.999983
0.99997713
0.99997142
0.99996695
0.99996296
0.99994986
0.99999997
0.99999993
0.99999985
0.99999968
0.99999937
0.99999883
0.99999796
0.99999669
0.99999504
0.99999309
0.99999081
0.99998842
0.99998557
0.99997886
0.99999999
0.99999999
0.99999997
0.99999993
0.99999985
0.99999971
0.99999947
0.9999991
0.9999986
0.99999796
0.99999717
0.99999613
0.99999457
0.9999914
1
1
0.99999999
0.99999998
0.99999996
0.99999993
0.99999986
0.99999976
0.99999961
0.99999941
0.99999914
0.99999875
0.99999801
0.99999661
1
1
1
1
1
1
1
1
1
1
1
1
1
1
1
1
1
1
1
1
1
1
1
1
1
1
1
1
1
1
1
1
1
1
1
1
1
1
1
1
1
1
1
1
1
1
1
1
1
1
1
1
1
1
1
1
1.0906712
1.0175017
1.0044508
1.0002462
1.0000048
1.0000001
1
1
1
1
1
1
1
1
1.0964801
1.0145227
1.003049
1.0001374
1.000002
1
1
1
1
1
1
1
1
1
1.083755
1.0108738
1.0021365
1.0000788
1.000001
1
1
1
1
1
1
1
1
1
1.0728701
1.0082227
1.001535
1.0000475
1.0000006
1
1
1
1
1
1
1
1
1
1
1
1
1
1
1
1
1
1
1
1
1
1
1
1
1
1
1
1
1
1
1
1
1
1
1
1
1
1
1
1
1
1
1
1
1
1
1
1
1
1
1
1
1
1
1
1
1
1
1
1
1
1
1
1
1
1
1
1
1
1
1
1
1
1
1
1
1
1
1
1
1
)
;

boundaryField
{
    Side
    {
        type            empty;
    }
    Inlet
    {
        type            inletOutlet;
        inletValue      uniform 1;
        value           nonuniform List<scalar> 7(1 1 1 1 1 1 1);
    }
    Airfoil
    {
        type            fixedValue;
        value           nonuniform List<scalar> 0();
    }
    Outlet
    {
        type            zeroGradient;
    }
    Flap
    {
        type            fixedValue;
        value           uniform 1;
    }
    procBoundary4to3
    {
        type            processor;
        value           nonuniform List<scalar> 
142
(
1
1
1
1
1
1
1
1
1
1
0.99999999
0.99999992
0.99999963
0.99999824
0.99999182
0.99996235
0.99996235
1
1
1
1
1
1
1
1
1
1
1
1
1
1
1
1
1
1
1
1
1
1
1
1
1
1
1
1
1
1
1
1
1
1
1
1
1
1
1
1
1
1
1
1
1
1
0.96911329
0.95244494
0.9338547
0.91481313
0.89607495
0.87822249
0.86215839
0.84883863
0.84279153
0.84553626
0.86209695
0.88351638
0.87880944
0.89709342
0.98137967
0.98979664
0.99503411
0.99503411
0.99860551
0.99950387
0.99950387
1
1
1
1
1
1
1
1
1
1
1
1
1
1
1
1
1
1
1
1
1
1
1
1
1
1
1.0634774
1.0063239
1.0011322
1.0000301
1.0000004
1
1
1
1
1
1
1
1
1
1
1
1
1
1
1
1
1
1
1
1
1
1
1
1
1
1
1
)
;
    }
    procBoundary4to5
    {
        type            processor;
        value           nonuniform List<scalar> 
189
(
1
1
1
1
1
1
1
1
1
1
1
1
1
1
1
1
1
1
1
1
1
1
1
1
1
1
1
1
1
1
1
1
1
1
1
1
1
1
1
1
1
1
1
1
1
1
1
1
1
1
1
1
1
1
1
1
1
1
1
1
1
1
1
0.99999987
1
0.99999987
1
1
1
1
1
1
1
1
1
1
1
0.99999988
0.99999951
0.9999984
0.99999512
0.99908298
0.99998622
0.99908298
0.99813561
0.99685076
0.98990043
0.98990043
0.98875238
0.98987382
0.98561358
0.98561358
0.9917276
0.99645727
0.99690753
0.99690753
0.99758092
0.99828745
0.99828745
0.99965502
1.0000014
1.0003319
1.0006554
1.0009724
1.0013027
1.0016777
1.0021126
1.0026069
1.0031369
1.0035906
1.0058503
1
1
1
1
1
1
1
0.99999989
1
1
1
1
1.0003012
0.99997642
0.99999989
1.0000017
1.0058503
1.0003012
0.99870151
1
1
1
1
1
1
1
1
1
1
1
1
1
1
1
1
1
1
1
1
1
1
1
1
1
1
1
1
1
1
1
1
1
1
1
1
1
1
1
1
1
1
1
1
1
1
1
1
1
1
1
1
1
1
1
1
1
1
1
)
;
    }
}


// ************************************************************************* //
