/*--------------------------------*- C++ -*----------------------------------*\
| =========                 |                                                 |
| \\      /  F ield         | OpenFOAM: The Open Source CFD Toolbox           |
|  \\    /   O peration     | Version:  2206                                  |
|   \\  /    A nd           | Website:  www.openfoam.com                      |
|    \\/     M anipulation  |                                                 |
\*---------------------------------------------------------------------------*/
FoamFile
{
    version     2.0;
    format      ascii;
    arch        "LSB;label=32;scalar=64";
    class       volVectorField;
    location    "0.01";
    object      U;
}
// * * * * * * * * * * * * * * * * * * * * * * * * * * * * * * * * * * * * * //

dimensions      [0 1 -1 0 0 0 0];

internalField   nonuniform List<vector> 
1396
(
(0.85671779 0.043699275 0)
(0.85671779 0.043699275 0)
(0.85671779 0.043699275 1.795297e-21)
(0.85671779 0.043699275 -1.7953801e-21)
(0.85671779 0.043699275 0)
(0.85671779 0.043699275 0)
(0.85671779 0.043699275 -8.9781484e-22)
(0.85671779 0.043699275 8.9785643e-22)
(0.85671779 0.043699275 -8.9789803e-22)
(0.85671779 0.043699275 8.9793964e-22)
(0.85671779 0.043699275 0)
(0.85671779 0.043699275 -8.9802287e-22)
(0.85671779 0.043699275 8.9806448e-22)
(0.85671779 0.043699275 0)
(0.85671779 0.043699275 0)
(0.85671779 0.043699275 1.8394299e-21)
(0.85671779 0.043699275 -3.6790345e-21)
(0.85671779 0.043699275 1.8396046e-21)
(0.85671779 0.043699275 -9.1984594e-22)
(0.85671779 0.043699275 1.8397792e-21)
(0.85671779 0.043699275 -9.1993328e-22)
(0.85671779 0.043699275 -9.1997695e-22)
(0.85671779 0.043699275 9.2002063e-22)
(0.85671779 0.043699275 9.2006431e-22)
(0.85671779 0.043699275 -9.20108e-22)
(0.85671779 0.043699275 0)
(0.85671779 0.043699275 0)
(0.85671779 0.043699275 0)
(0.85671779 0.043699275 1.8857906e-21)
(0.85671779 0.043699275 1.885879e-21)
(0.85671779 0.043699275 3.9196838e-34)
(0.85671779 0.043699275 -1.8860625e-21)
(0.85671779 0.043699275 0)
(0.85671779 0.043699275 9.4312307e-22)
(0.85671779 0.043699275 -9.4316897e-22)
(0.85671779 0.043699275 0)
(0.85671779 0.043699275 0)
(0.85671779 0.043699275 0)
(0.85671779 0.043699275 0)
(0.85671779 0.043699275 0)
(0.85671779 0.043699275 -9.4344449e-22)
(0.85671779 0.043699275 9.4349094e-22)
(0.85671779 0.043699275 -1.4153642e-21)
(0.85671779 0.043699275 1.416808e-21)
(0.85671779 0.043699275 0)
(0.85671779 0.043699275 0)
(0.85671779 0.043699275 1.4211728e-21)
(0.85671779 0.043699275 -2.8452673e-21)
(0.85671779 0.043699275 7.1204875e-22)
(0.85671779 0.043699274 7.1278217e-22)
(0.85671779 0.043699271 0)
(0.85671778 0.043699252 7.1425349e-22)
(0.85671773 0.043699147 -7.1499144e-22)
(0.8567175 0.043698588 3.5786498e-22)
(0.85671626 0.04369562 -3.5800148e-22)
(0.85671015 0.043687282 0)
(0.85671779 0.043699275 0)
(0.85671779 0.043699275 0)
(0.85671779 0.043699275 0)
(0.85671779 0.043699275 0)
(0.85671779 0.043699275 1.3405831e-21)
(0.85671779 0.043699275 -1.3418829e-21)
(0.85671779 0.043699275 0)
(0.85671779 0.043699275 0)
(0.85671779 0.043699274 0)
(0.85671779 0.043699271 0)
(0.85671778 0.043699253 0)
(0.85671773 0.043699138 0)
(0.85671745 0.043698483 0)
(0.85671594 0.04369639 0)
(0.85671779 0.043699275 1.2640115e-21)
(0.85671779 0.043699275 -1.2651635e-21)
(0.85671779 0.043699275 2.5326423e-21)
(0.85671779 0.043699275 -1.2674809e-21)
(0.85671779 0.043699275 0)
(0.85671779 0.043699275 0)
(0.85671779 0.043699275 0)
(0.85671779 0.043699275 -6.360705e-22)
(0.85671779 0.043699275 1.2733114e-21)
(0.85671779 0.043699274 -6.3724192e-22)
(0.85671779 0.043699271 0)
(0.85671778 0.043699249 3.192088e-22)
(0.85671772 0.043699111 -3.1931714e-22)
(0.85671736 0.043698603 0)
(0.85671779 0.043699275 -1.1998578e-21)
(0.85671779 0.043699275 0)
(0.85671779 0.043699275 0)
(0.85671779 0.043699275 0)
(0.85671779 0.043699275 0)
(0.85671779 0.043699275 0)
(0.85671779 0.043699275 6.030644e-22)
(0.85671779 0.043699275 -6.035904e-22)
(0.85671779 0.043699275 6.0411731e-22)
(0.85671779 0.043699275 -6.0464513e-22)
(0.85671779 0.043699274 0)
(0.85671779 0.04369927 3.0285176e-22)
(0.85671778 0.043699243 -4.5442391e-22)
(0.8567177 0.043699124 1.51391e-22)
(0.85671779 0.043699275 -5.9965327e-35)
(0.85671779 0.043699275 -1.1428425e-21)
(0.85671779 0.043699275 0)
(0.85671779 0.043699275 0)
(0.85671779 0.043699275 0)
(0.85671779 0.043699275 0)
(0.85671779 0.043699275 -5.7379027e-22)
(0.85671779 0.043699275 1.1485328e-21)
(0.85671779 0.043699275 -2.3737709e-33)
(0.85671779 0.043699275 -1.1504422e-21)
(0.85671779 0.043699275 5.756996e-22)
(0.85671779 0.043699274 0)
(0.85671779 0.043699269 -1.4408884e-22)
(0.85671777 0.043699243 1.4401314e-22)
(0.85671779 0.043699275 1.0892863e-21)
(0.85671779 0.043699275 0)
(0.85671779 0.043699275 -1.0910016e-21)
(0.85671779 0.043699275 1.0918623e-21)
(0.85671779 0.043699275 0)
(0.85671779 0.043699275 0)
(0.85671779 0.043699275 0)
(0.85671779 0.043699275 -5.4765934e-22)
(0.85671779 0.043699275 1.0961862e-21)
(0.85671779 0.043699275 -2.873083e-33)
(0.85671779 0.043699275 -2.7448131e-22)
(0.85671779 0.043699275 -9.5314431e-32)
(0.85671779 0.043699274 -2.7477943e-22)
(0.85671779 0.043699269 0)
(0.85671779 0.043699275 0)
(0.85671779 0.043699275 0)
(0.85671779 0.043699275 0)
(0.85671779 0.043699275 0)
(0.85671779 0.043699275 0)
(0.85671779 0.043699275 0)
(0.85671779 0.043699275 0)
(0.85671779 0.043699275 0)
(0.85671779 0.043699275 5.2380493e-22)
(0.85671779 0.043699275 -5.2420169e-22)
(0.85671779 0.043699275 0)
(0.85671779 0.043699275 2.6249851e-22)
(0.85671779 0.043699275 -2.6257176e-22)
(0.85671779 0.043699274 0)
(0.85671779 0.043699275 0)
(0.85671779 0.043699275 0)
(0.85671779 0.043699275 0)
(0.85671779 0.043699275 0)
(0.85671779 0.043699275 1.0002571e-21)
(0.85671779 0.043699275 -1.0009805e-21)
(0.85671779 0.043699275 0)
(0.85671779 0.043699275 0)
(0.85671779 0.043699275 5.0157849e-22)
(0.85671779 0.043699275 -3.2031758e-34)
(0.85671779 0.043699275 -5.023066e-22)
(0.85671779 0.043699275 2.5133572e-22)
(0.85671779 0.043699275 -2.5140287e-22)
(0.85671779 0.043699275 0)
(0.85671779 0.043699275 -1.5688603e-22)
(0.85671779 0.043699275 -5.0106622e-21)
(0.85671779 0.043699275 -1.5628151e-22)
(0.85671779 0.043699275 1.55981e-22)
(0.85671779 0.043699275 -5.1374936e-21)
(0.85671779 0.043699275 5.328594e-35)
(0.85671779 0.043699275 0)
(0.85671779 0.043699275 5.1393375e-21)
(0.85671779 0.043699275 -5.2849283e-21)
(0.85671779 0.043699275 0)
(0.85671779 0.043699275 -1.5484562e-22)
(0.85671779 0.043699275 1.545506e-22)
(0.85671779 0.043699275 1.0126572e-20)
(0.85671779 0.043699275 -4.9758328e-21)
(0.85671779 0.043699275 0)
(0.85671779 0.043699275 1.5490091e-22)
(0.85671779 0.043699275 -1.5460567e-22)
(0.85671779 0.043699275 -4.9379697e-21)
(0.85671779 0.043699275 4.9285941e-21)
(0.85671779 0.043699275 0)
(0.85671779 0.043699275 -1.5343589e-22)
(0.85671779 0.043699275 -4.9680897e-21)
(0.85671779 0.043699275 1.5495623e-22)
(0.85671779 0.043699275 4.7944844e-21)
(0.85671779 0.043699275 1.5436645e-22)
(0.85671779 0.043699275 1.5407326e-22)
(0.85671779 0.043699275 0)
(0.85671779 0.043699275 -1.5349017e-22)
(0.85671779 0.043699275 1.5320028e-22)
(0.85671779 0.043699275 5.046079e-21)
(0.85671779 0.043699275 -4.883961e-21)
(0.85671779 0.043699275 1.5233714e-22)
(0.85671779 0.043699275 -4.9509098e-21)
(0.85671779 0.043699275 8.2223673e-35)
(0.85671779 0.043699275 5.0862237e-21)
(0.85671779 0.043699275 -5.0765775e-21)
(0.85671779 0.043699275 1.5354449e-22)
(0.85671779 0.043699275 5.0573949e-21)
(0.85671779 0.043699275 1.5296539e-22)
(0.85671779 0.043699275 -5.0383571e-21)
(0.85671779 0.043699275 0)
(0.85671779 0.043699275 1.521049e-22)
(0.85671779 0.043699275 2.7676615e-35)
(0.85671779 0.043699275 0)
(0.85671779 0.043699275 -5.0783781e-21)
(0.85671779 0.043699275 8.7856526e-34)
(0.85671779 0.043699275 4.9058734e-21)
(0.85671779 0.043699275 -3.0603868e-22)
(0.85671779 0.043699275 -5.0401307e-21)
(0.85671779 0.043699275 9.6039841e-21)
(0.85671779 0.043699275 -4.8690638e-21)
(0.85671779 0.043699275 1.5187335e-22)
(0.85671779 0.043699275 -3.0317907e-22)
(0.85671779 0.043699275 3.2857722e-35)
(0.85671779 0.043699275 1.5102507e-22)
(0.85671779 0.043699275 0)
(0.85671779 0.043699275 1.5046477e-22)
(0.85671779 0.043699275 0)
(0.85671779 0.043699275 3.0499554e-22)
(0.85671779 0.043699275 -1.5221163e-22)
(0.85671779 0.043699275 0)
(0.85671779 0.043699275 1.5164251e-22)
(0.85671779 0.043699275 -3.0271912e-22)
(0.85671779 0.043699275 3.021553e-22)
(0.85671779 0.043699275 4.6747009e-21)
(0.85671779 0.043699275 -9.6330868e-21)
(0.85671779 0.043699275 4.6573846e-21)
(0.85671779 0.043699275 0)
(0.85671779 0.043699275 2.5208474e-35)
(0.85671779 0.043699275 4.8542571e-21)
(0.85671779 0.043699275 -4.8451961e-21)
(0.85671779 0.043699275 -3.0226055e-22)
(0.85671779 0.043699275 3.0169847e-22)
(0.85671779 0.043699275 -1.5056921e-22)
(0.85671779 0.043699275 -4.8092881e-21)
(0.85671779 0.043699275 4.6503815e-21)
(0.85671779 0.043699275 -4.6417972e-21)
(0.85671779 0.043699275 4.7827036e-21)
(0.85671779 0.043699275 4.8288543e-21)
(0.85671779 0.043699275 3.0124297e-22)
(0.85671779 0.043699275 4.6606122e-21)
(0.85671779 0.043699275 -9.6041082e-21)
(0.85671779 0.043699275 4.7931868e-21)
(0.85671779 0.043699275 1.49511e-22)
(0.85671779 0.043699275 -4.6263141e-21)
(0.85671779 0.043699275 4.76678e-21)
(0.85671779 0.043699275 -4.9446809e-21)
(0.85671779 0.043699275 4.6364388e-21)
(0.85671779 0.043699275 -4.9264804e-21)
(0.85671779 0.043699275 -1.4901305e-22)
(0.85671779 0.043699275 -1.487398e-22)
(0.85671779 0.043699275 -1.4846755e-22)
(0.85671779 0.043699275 -4.612515e-21)
(0.85671779 0.043699275 -4.7525885e-21)
(0.85671779 0.043699275 2.4753912e-34)
(0.85671779 0.043699275 5.031201e-21)
(0.85671779 0.043699275 0)
(0.85671779 0.043699275 -2.9497738e-22)
(0.85671779 0.043699275 -8.9672489e-21)
(0.85671779 0.043699275 5.8222385e-21)
(0.85671779 0.043699275 -3.2100294e-35)
(0.85671779 0.043699275 0)
(0.85671779 0.043699275 -1.7508145e-22)
(0.85671779 0.043699275 2.9688124e-21)
(0.85671779 0.043699275 -5.5741714e-21)
(0.85671779 0.043699275 2.6062792e-21)
(0.85671779 0.043699275 -2.5996986e-21)
(0.85671779 0.043699275 2.766028e-21)
(0.85671779 0.043699275 0)
(0.85671779 0.043699275 -1.8391303e-22)
(0.85671779 0.043699275 3.6684319e-22)
(0.85671779 0.043699275 0)
(0.85671779 0.043699275 1.8244658e-22)
(0.85671779 0.043699275 -3.0933695e-21)
(0.85671779 0.043699275 3.0851915e-21)
(0.85671779 0.043699275 3.620066e-22)
(0.85671779 0.043699275 -3.0689636e-21)
(0.85671779 0.043699275 -9.2187465e-21)
(0.85671779 0.043699275 5.7456399e-21)
(0.85671779 0.043699275 -3.0558157e-21)
(0.85671779 0.043699275 3.2377952e-21)
(0.85671779 0.043699275 -1.8993156e-22)
(0.85671779 0.043699275 -6.0610393e-21)
(0.85671779 0.043699275 2.0095609e-22)
(0.85671779 0.043699275 4.0073899e-22)
(0.85671779 0.043699275 -3.1965811e-21)
(0.85671779 0.043699275 2.9880979e-21)
(0.85671779 0.043699275 6.7430299e-21)
(0.85671779 0.043699275 1.3888841e-34)
(0.85671779 0.043699275 2.068939e-20)
(0.85671779 0.043699275 0)
(0.85671779 0.043699275 0)
(0.85671779 0.043699275 0)
(0.85671779 0.043699275 0)
(0.85671779 0.043699275 0)
(0.85671779 0.043699275 0)
(0.85671779 0.043699275 0)
(0.85671779 0.043699275 0)
(0.85671779 0.043699275 0)
(0.85671779 0.043699275 1.7114298e-20)
(0.85671779 0.043699275 -6.2879978e-23)
(0.85671779 0.043699275 5.9352917e-23)
(0.85671779 0.043699275 1.4386818e-20)
(0.85671779 0.043699275 3.341882e-22)
(0.85671779 0.043699275 1.0935141e-35)
(0.85671779 0.043699275 -1.4430617e-22)
(0.85671779 0.043699275 -1.7292061e-20)
(0.85671779 0.043699275 0)
(0.85671779 0.043699275 0)
(0.85671779 0.043699275 -1.451223e-20)
(0.85671779 0.043699275 0)
(0.85671779 0.043699275 0)
(0.85671779 0.043699275 0)
(0.85671779 0.043699275 0)
(0.85671779 0.043699275 -6.411997e-23)
(0.85671779 0.043699275 6.0456471e-23)
(0.85671779 0.043699275 -1.4639849e-20)
(0.85671779 0.043699275 -2.4074569e-20)
(0.85671779 0.043699275 2.2295093e-20)
(0.85671779 0.043699275 6.4675164e-35)
(0.85671779 0.043699275 -1.4758107e-22)
(0.85671779 0.043699275 0)
(0.85671779 0.043699275 1.6578173e-20)
(0.85671779 0.043699275 1.5591578e-20)
(0.85671779 0.043699275 2.9568311e-20)
(0.85671779 0.043699275 2.442505e-20)
(0.85671779 0.043699275 -2.2419221e-20)
(0.85671779 0.043699275 2.0717831e-20)
(0.85671779 0.043699275 0)
(0.85671779 0.043699275 0)
(0.85671779 0.043699275 -1.6810328e-20)
(0.85671779 0.043699275 -1.5708472e-20)
(0.85671779 0.043699275 -2.4401601e-20)
(0.85671779 0.043699275 2.2370564e-20)
(0.85671779 0.043699275 -2.0814253e-20)
(0.85671779 0.043699275 1.9329032e-20)
(0.85671779 0.043699275 0)
(0.85671779 0.043699275 1.6915059e-20)
(0.85671779 0.043699275 0)
(0.85671779 0.043699275 2.4962508e-20)
(0.85671779 0.043699275 -2.2856254e-20)
(0.85671779 0.043699275 0)
(0.85671779 0.043699275 -9.7780445e-21)
(0.85671779 0.043699275 0)
(0.85671779 0.043699275 -8.4775917e-21)
(0.85671779 0.043699275 7.9745165e-21)
(0.85671779 0.043699275 -1.9798826e-22)
(0.85671779 0.043699275 0)
(0.85671779 0.043699275 0)
(0.85671779 0.043699275 -9.8942717e-21)
(0.85671779 0.043699275 0)
(0.85671779 0.043699275 -8.6329602e-21)
(0.85671779 0.043699275 -8.1156719e-21)
(0.85671779 0.043699275 -1.2666075e-20)
(0.85671779 0.043699275 1.1750789e-20)
(0.85671779 0.043699275 0)
(0.85671779 0.043699275 -1.0013297e-20)
(0.85671779 0.043699275 0)
(0.85671779 0.043699275 -8.7915853e-21)
(0.85671779 0.043699275 1.3273355e-20)
(0.85671779 0.043699275 -1.1919046e-20)
(0.85671779 0.043699275 -1.0783819e-20)
(0.85671779 0.043699275 1.0135217e-20)
(0.85671779 0.043699275 9.2822533e-21)
(0.85671779 0.043699275 8.8158231e-21)
(0.85671779 0.043699275 2.6347764e-20)
(0.85671779 0.043699275 -2.4373328e-20)
(0.85671779 0.043699275 1.1274545e-20)
(0.85671779 0.043699275 1.0420462e-20)
(0.85671779 0.043699275 -9.6866635e-21)
(0.85671779 0.043699275 8.8405797e-21)
(0.85671779 0.043699275 -1.2822928e-33)
(0.85671779 0.043699275 2.4540893e-20)
(0.85671779 0.043699275 1.757991e-22)
(0.85671779 0.043699275 -2.0938698e-20)
(0.85671779 0.043699275 0)
(0.85671779 0.043699275 -1.8013197e-20)
(0.85671779 0.043699275 -2.7430447e-20)
(0.85671779 0.043699275 1.9459503e-22)
(0.85671779 0.043699275 -1.782084e-22)
(0.85671779 0.043699275 1.0683871e-20)
(0.85671779 0.043699275 -1.5252113e-22)
(0.85671779 0.043699275 2.7192488e-34)
(0.85671779 0.043699275 -9.4120528e-22)
(0.85671779 0.043699275 -9.446649e-22)
(0.85671779 0.043699275 3.5555625e-21)
(0.85671779 0.043699275 -1.9615852e-21)
(0.85671779 0.043699275 9.8454994e-22)
(0.85671779 0.043699275 2.1298079e-34)
(0.85671779 0.043699275 0)
(0.85671779 0.043699275 1.0279514e-21)
(0.85671779 0.043699275 -1.0708751e-21)
(0.85671779 0.043699275 -1.1224203e-21)
(0.85671779 0.043699275 -5.6450822e-22)
(0.85671779 0.043699275 -1.4305155e-21)
(0.85671779 0.043699275 -2.9005847e-22)
(0.85671779 0.043699274 -2.9412475e-22)
(0.85671779 0.043699273 2.2470142e-29)
(0.85671779 0.043699271 -1.2104367e-21)
(0.85671779 0.043699267 -6.1407521e-22)
(0.85671778 0.043699261 -3.1159749e-22)
(0.85671778 0.043699251 -6.3259001e-22)
(0.85671777 0.043699237 -6.4227244e-22)
(0.85671776 0.043699218 -6.5225584e-22)
(0.85671774 0.043699187 -8.2819416e-23)
(0.8567177 0.043699125 -6.3110907e-22)
(0.85671779 0.043699275 5.7123538e-22)
(0.85671779 0.043699275 -5.7911923e-22)
(0.85671779 0.043699275 0)
(0.85671779 0.043699275 0)
(0.85671779 0.043699275 3.0206627e-22)
(0.85671779 0.043699275 -3.0647873e-22)
(0.85671779 0.043699275 0)
(0.85671779 0.043699275 0)
(0.85671779 0.043699275 -1.6026253e-22)
(0.85671779 0.043699275 1.1562496e-21)
(0.85671779 0.043699275 -5.8620131e-22)
(0.85671779 0.043699275 -2.9725328e-22)
(0.85671779 0.043699275 1.4039846e-34)
(0.82722653 -0.024972222 -5.1173542e-21)
(0.81105905 -0.062591338 -3.81572e-23)
(0.79344179 -0.10391614 0)
(0.77431026 -0.14878862 3.6487469e-23)
(0.75436197 -0.19564307 0)
(0.73418876 -0.24313285 -3.4949686e-23)
(0.71471714 -0.28914241 4.3120237e-21)
(0.69975727 -0.32558267 -2.3755233e-22)
(0.68797258 -0.35448539 -8.7082024e-21)
(0.69930126 -0.33176206 4.3132019e-21)
(0.71898825 -0.29098294 3.4279833e-23)
(0.72958448 -0.26897542 -3.4736108e-23)
(0.71858225 -0.2983087 -3.4414593e-23)
(0.69542168 -0.3038553 4.5309791e-21)
(0.82100133 -0.037381244 5.1757059e-21)
(0.80356042 -0.076935075 -4.8308205e-21)
(0.78499778 -0.11930843 5.0224392e-21)
(0.76512889 -0.16464698 -7.456512e-23)
(0.74457798 -0.21156334 0)
(0.72398002 -0.25863996 3.6162194e-23)
(0.70425361 -0.30382219 -3.4726471e-23)
(0.6898385 -0.33793916 -4.3212976e-21)
(0.68028316 -0.36109336 4.4073674e-21)
(0.69428737 -0.33250557 3.4352365e-23)
(0.71525599 -0.28969274 -6.9976749e-23)
(0.72273835 -0.27506301 3.5783804e-23)
(0.70735902 -0.31153204 4.3543412e-21)
(0.68350667 -0.31567931 -4.7960937e-21)
(0.81497762 -0.048323734 -5.2047008e-21)
(0.79646418 -0.089041544 4.8832973e-21)
(0.7769445 -0.13213509 -3.4698103e-22)
(0.75625596 -0.17775729 -4.9088748e-21)
(0.73497963 -0.22464891 -4.5349046e-21)
(0.71380528 -0.27132601 4.754578e-21)
(0.69359553 -0.3159201 3.5635319e-23)
(0.67950563 -0.34805642 -4.3581354e-21)
(0.67214088 -0.36569317 4.4994791e-21)
(0.68848706 -0.3326538 -6.963291e-23)
(0.71020179 -0.28953896 3.5533995e-23)
(0.71520447 -0.28082304 -4.539844e-21)
(0.69675532 -0.32173042 4.6985225e-21)
(0.67295633 -0.32533442 0)
(0.80972952 -0.056917974 -1.0152471e-20)
(0.79038016 -0.098203691 2.9788869e-22)
(0.76996606 -0.14182245 5.0787661e-21)
(0.7484782 -0.18765643 4.6244109e-21)
(0.72646103 -0.2345586 -4.8473228e-21)
(0.70465457 -0.2809939 0)
(0.683827 -0.32535905 0)
(0.66986455 -0.35604836 -3.5025615e-23)
(0.66426367 -0.36944316 0)
(0.68249106 -0.33366329 -4.5830473e-21)
(0.70478189 -0.29099136 -2.371105e-22)
(0.70796126 -0.28664516 -5.0043473e-24)
(0.68755707 -0.33008117 4.6186957e-21)
(0.66393609 -0.33368313 0)
(0.80557596 -0.062886115 -1.89353e-22)
(0.78554483 -0.10440907 -9.9005083e-21)
(0.76425572 -0.14851669 5.0110264e-21)
(0.74194275 -0.19463477 -7.3923134e-23)
(0.71911444 -0.24172506 0)
(0.69655603 -0.28821669 -7.1002784e-23)
(0.6749594 -0.33274351 -4.3671947e-21)
(0.66078793 -0.36283644 2.3665716e-22)
(0.65634236 -0.3737497 -3.8131551e-23)
(0.67606251 -0.33673464 9.09459e-21)
(0.69911286 -0.29473851 -4.4073183e-21)
(0.70090788 -0.2936193 0)
(0.67899007 -0.33838353 7.1220747e-23)
(0.65498017 -0.3423357 0)
(0.8025229 -0.066178196 -5.1919539e-21)
(0.78184156 -0.10773555 0)
(0.75957137 -0.15238587 0)
(0.73626692 -0.19894085 4.6083913e-21)
(0.7123954 -0.24648117 -9.2138929e-21)
(0.68876835 -0.29344592 4.7516385e-21)
(0.66601256 -0.33869782 0)
(0.65098174 -0.36937253 -6.8892193e-23)
(0.64682585 -0.3797103 0)
(0.66753763 -0.34277234 -6.9919675e-23)
(0.69193359 -0.30057433 0)
(0.69269763 -0.30133058 -4.5301054e-21)
(0.669692 -0.3459965 8.9828385e-21)
(0.64456485 -0.35106807 -4.8921833e-21)
(0.80082616 -0.066259986 -9.6811361e-21)
(0.77951638 -0.10761018 4.9409996e-21)
(0.75614509 -0.15281012 -4.5380292e-21)
(0.73166297 -0.19990933 4.6961826e-21)
(0.70648487 -0.24812529 0)
(0.68141314 -0.29597502 4.2186079e-21)
(0.65698966 -0.34258419 -4.5139897e-21)
(0.64014678 -0.37528449 0)
(0.63497302 -0.38728335 0)
(0.65593494 -0.35174826 0)
(0.68246562 -0.30765333 4.4760184e-21)
(0.68330734 -0.3080135 -4.8112991e-24)
(0.66024984 -0.35075242 -3.0879916e-22)
(0.63355675 -0.35805297 -9.5152982e-21)
(0.80065836 -0.062784292 -4.8864512e-21)
(0.77873029 -0.10362081 4.5152915e-21)
(0.75413179 -0.14928683 -9.2254924e-21)
(0.72828801 -0.19695071 3.2417813e-22)
(0.70155819 -0.24597156 4.6343665e-21)
(0.67469111 -0.29501463 2.034814e-26)
(0.64813842 -0.3434367 -6.6369695e-23)
(0.62838414 -0.37951922 0)
(0.62035976 -0.39589206 -4.1686255e-21)
(0.64044321 -0.36343016 4.1242315e-21)
(0.66957738 -0.31629438 4.5237305e-21)
(0.67281275 -0.31323107 -4.4212442e-21)
(0.6515341 -0.35223253 7.6228974e-25)
(0.62323021 -0.3627852 0)
(0.80341549 -0.054674463 -1.4408418e-22)
(0.78124914 -0.094737206 4.3015338e-21)
(0.755777 -0.14069275 -4.5912676e-21)
(0.72883427 -0.18894543 -4.1180153e-21)
(0.70076567 -0.23889184 4.2938049e-21)
(0.67226972 -0.2893235 4.0301389e-21)
(0.64394955 -0.33937435 -4.2742119e-21)
(0.62120913 -0.37958032 3.913096e-21)
(0.60915358 -0.40299915 -8.2991201e-21)
(0.62764939 -0.37588486 4.0621768e-21)
(0.65984206 -0.32731594 -6.4299131e-23)
(0.66658075 -0.31992246 4.2424481e-21)
(0.64854053 -0.35292101 -4.377574e-21)
(0.61505327 -0.36750291 4.3983355e-21)
(0.80639681 -0.045522159 -4.543275e-21)
(0.78326691 -0.084941276 1.3638861e-22)
(0.75589771 -0.13138066 -1.3074951e-24)
(0.72660348 -0.18048274 -6.6255873e-23)
(0.69574438 -0.23167859 -1.020907e-24)
(0.66391924 -0.28397468 -8.0879195e-25)
(0.63157586 -0.33674368 3.872653e-21)
(0.60286321 -0.38275452 -4.0660932e-21)
(0.58244854 -0.41562982 4.4402672e-25)
(0.59502157 -0.39700926 1.4394588e-24)
(0.62732845 -0.34807278 -4.2084941e-21)
(0.63912443 -0.33263511 4.1629233e-21)
(0.6272503 -0.35062463 -5.1430918e-25)
(0.58708844 -0.36998021 -1.3318189e-24)
(0.81525464 -0.028836864 -4.1218248e-21)
(0.79359808 -0.06571549 1.300816e-22)
(0.76710946 -0.11097963 4.3505344e-21)
(0.73822372 -0.15986833 -3.8392614e-21)
(0.70744692 -0.21143016 4.0709993e-21)
(0.67546878 -0.26449081 1.1865196e-22)
(0.6433176 -0.31753042 5.8211201e-23)
(0.61408064 -0.36579914 1.1392933e-22)
(0.5917952 -0.40566213 1.1228873e-22)
(0.59862725 -0.39775325 -3.6971682e-21)
(0.63464235 -0.34974478 3.790071e-21)
(0.64690634 -0.32643097 -1.2154091e-22)
(0.65381171 -0.32026214 6.071997e-23)
(0.57145389 -0.33843462 8.4982423e-21)
(0.81522007 -0.021362941 -4.0386128e-21)
(0.79081153 -0.057867349 6.1830548e-23)
(0.75912964 -0.10433913 -6.0750126e-23)
(0.72442932 -0.15449109 5.9664372e-23)
(0.68738586 -0.20761426 -3.5249208e-21)
(0.64834995 -0.26321026 2.7455505e-22)
(0.60718261 -0.32156025 3.1734703e-22)
(0.56463859 -0.3813891 3.6745162e-21)
(0.53000762 -0.42820693 -2.7764097e-23)
(0.51801338 -0.43246059 -3.7152347e-21)
(0.56053199 -0.35996188 3.5197228e-21)
(0.5404823 -0.33390057 2.7414224e-23)
(0.53927704 -0.24020494 0)
(0.27804901 -0.21716468 -6.721739e-23)
(0.85671476 0.043695729 0)
(0.85670855 0.043688054 3.0530358e-23)
(0.85669542 0.043669852 -9.9125637e-22)
(0.85666561 0.043626631 6.7419406e-26)
(0.85660152 0.043530652 1.0211374e-21)
(0.8564687 0.043328131 0)
(0.85620466 0.042922588 0)
(0.85570499 0.04215463 0)
(0.85479793 0.040786334 0)
(0.85315911 0.038511332 5.8346119e-22)
(0.85034211 0.034980303 -5.5967698e-22)
(0.8461619 0.02956469 0)
(0.84076575 0.021098248 0)
(0.83400129 0.008775511 -1.4311498e-22)
(0.8567059 0.043684986 -9.4245794e-22)
(0.85668193 0.043655281 -2.9867229e-23)
(0.85663058 0.043583713 9.6929711e-22)
(0.85651745 0.043416072 -1.9666299e-21)
(0.85627964 0.043049874 9.978364e-22)
(0.85580276 0.042302773 5.0571459e-22)
(0.85490296 0.0408814 -5.1375426e-22)
(0.85330695 0.038359358 -5.1934689e-22)
(0.850653 0.034172503 5.2875167e-22)
(0.84653509 0.02763517 4.9733498e-22)
(0.84067464 0.018007934 -5.4285123e-22)
(0.83330026 0.0047492793 0)
(0.82518622 -0.01181895 0)
(0.8160891 -0.0293775 0)
(0.85667784 0.043654179 0)
(0.85659599 0.043559311 -1.0521382e-21)
(0.85642277 0.043333548 9.4842688e-22)
(0.85605054 0.042822462 -1.2008144e-22)
(0.85531108 0.041766506 0)
(0.85394699 0.039767633 0)
(0.8516104 0.036292178 0)
(0.84788883 0.030717187 0)
(0.84236553 0.022407717 0)
(0.83473055 0.01078101 0)
(0.82502517 -0.0046456334 0)
(0.81398331 -0.024104987 0)
(0.80259524 -0.04702705 0)
(0.79041298 -0.069995568 0)
(0.85659296 0.043567586 -1.1293894e-22)
(0.85633676 0.043293647 -9.1530399e-22)
(0.85581366 0.042665232 8.1230988e-22)
(0.85475278 0.041317741 -9.3818587e-22)
(0.85280332 0.038723813 4.0145641e-24)
(0.84952898 0.034205434 1.3248545e-21)
(0.84447862 0.027041735 -6.0860158e-22)
(0.83728597 0.016626754 -1.2068135e-22)
(0.8277749 0.0025946158 -1.2085889e-22)
(0.81603744 -0.015215297 0)
(0.80246779 -0.037012446 -3.649426e-22)
(0.78782174 -0.063037105 1.3314011e-22)
(0.77358596 -0.091598404 -3.6080376e-22)
(0.75944382 -0.11789646 1.3387869e-22)
(0.85636432 0.043359276 3.3192409e-22)
(0.85566388 0.04267671 1.0078477e-21)
(0.85431146 0.041194677 -1.1542035e-22)
(0.85175398 0.038214924 -1.0334051e-21)
(0.84743779 0.032893646 2.3026138e-22)
(0.84085657 0.024363368 -1.1352745e-22)
(0.83172055 0.011980379 1.1894539e-22)
(0.82006975 -0.0044772957 3.5143131e-22)
(0.8062373 -0.024842491 -1.0981357e-22)
(0.79054103 -0.049019881 2.3007156e-22)
(0.77308195 -0.077493236 -1.062038e-22)
(0.75541164 -0.10953778 3.4839583e-22)
(0.74004908 -0.14181447 1.2184425e-22)
(0.72504569 -0.16981548 -1.0139031e-22)
(0.85422086 0.041529959 0)
(0.85127081 0.038623594 1.1059705e-21)
(0.84607899 0.033149542 -1.3409143e-21)
(0.83801334 0.024048431 6.8029867e-22)
(0.82678349 0.010504293 4.5241893e-22)
(0.81261658 -0.0077695382 -2.3737649e-22)
(0.79616521 -0.030505942 -2.3193725e-22)
(0.77802699 -0.05729677 2.3302657e-22)
(0.75813619 -0.088307387 2.0737875e-22)
(0.7373633 -0.12335626 -6.6241815e-22)
(0.71869932 -0.15991723 2.1039802e-22)
(0.70363706 -0.19471923 0)
(0.68804612 -0.22426347 2.3126051e-22)
(0.85173232 0.039911603 -8.5569786e-22)
(0.84630835 0.035223975 6.5369473e-22)
(0.83736328 0.026903628 -2.1912761e-22)
(0.82442215 0.013875264 -2.1613055e-22)
(0.8076789 -0.0044598681 -2.0720731e-22)
(0.78799088 -0.028090125 8.0052945e-24)
(0.76641009 -0.056654122 -2.123456e-22)
(0.74343257 -0.089968754 0)
(0.71954569 -0.12797074 2.0903647e-22)
(0.69704401 -0.16893433 -2.1738882e-22)
(0.67862781 -0.21007252 -4.2347867e-22)
(0.66424663 -0.24844776 0)
(0.64841976 -0.28055826 -3.0377678e-22)
(0.84838843 0.038369702 -2.0968394e-22)
(0.83993165 0.03224093 8.3880071e-22)
(0.82666073 0.021867731 -1.6908934e-21)
(0.80839255 0.0062963526 2.417589e-22)
(0.7857965 -0.014965115 1.0624568e-21)
(0.76013464 -0.042022443 -4.2183333e-22)
(0.73265638 -0.074937026 -3.9606408e-22)
(0.7042702 -0.11381767 4.2586689e-22)
(0.67664728 -0.15793991 1.1012965e-23)
(0.65250958 -0.20562497 -1.9809174e-22)
(0.63405456 -0.2541847 1.4097005e-23)
(0.62071815 -0.29949164 0)
(0.60539792 -0.33698375 1.7993692e-23)
(0.83389912 0.031589623 -2.1233174e-22)
(0.81675164 0.021370771 4.1165455e-22)
(0.79369645 0.0064354934 0)
(0.76557489 -0.013802193 2.0605209e-22)
(0.73372178 -0.039984706 2.0473359e-22)
(0.69958993 -0.073077597 6.0384421e-22)
(0.66495231 -0.11408729 0)
(0.63195327 -0.16314529 9.7464589e-22)
(0.60350767 -0.21956428 -2.0489898e-22)
(0.58303461 -0.28039959 1.9854027e-22)
(0.5710047 -0.33802135 0)
(0.55917677 -0.3838782 1.0555813e-22)
(0.83081919 0.034588778 -1.2029712e-21)
(0.81163587 0.027634494 4.1269675e-22)
(0.78588072 0.017920908 0)
(0.75413894 0.0049640931 3.8762679e-22)
(0.71725575 -0.012402489 -4.0293991e-22)
(0.67620716 -0.036521307 -3.6913128e-22)
(0.63288442 -0.070805817 3.9810738e-22)
(0.59028847 -0.1188078 -7.512761e-22)
(0.55221745 -0.18200096 7.9314123e-22)
(0.52543885 -0.25879183 -1.7911834e-22)
(0.51594409 -0.34042799 -3.7145341e-22)
(0.5185726 -0.39982135 2.8823635e-22)
(0.83271126 0.040352092 0)
(0.81466228 0.039005406 7.820661e-22)
(0.79024422 0.038333177 -8.0157387e-22)
(0.75956621 0.038809556 0)
(0.72232079 0.039726366 0)
(0.67739695 0.037773739 -3.7804857e-22)
(0.62419832 0.026187944 0)
(0.5654696 -0.0038102129 0)
(0.50868818 -0.058701559 -1.8131138e-22)
(0.46584752 -0.13830224 2.203022e-22)
(0.46040824 -0.23304818 3.6241848e-22)
(0.49102134 -0.31561244 4.3314639e-22)
(0.8253324 0.049474655 -7.9164596e-22)
(0.80666114 0.057254734 0)
(0.783084 0.071151993 7.8429222e-22)
(0.75329858 0.09239027 -3.8305787e-22)
(0.71338447 0.11895599 7.9461909e-22)
(0.65808973 0.14322697 4.014734e-22)
(0.58544762 0.15235313 0)
(0.50135715 0.12864682 6.0050017e-22)
(0.42905677 0.056391222 -5.5818597e-22)
(0.40715254 -0.064827125 0)
(0.43926537 -0.19826842 1.8447489e-22)
(0.83843999 0.053740032 -1.5551265e-21)
(0.82700336 0.064861587 3.9230577e-22)
(0.81277849 0.084597223 3.2292143e-24)
(0.79500757 0.11645766 -7.8072345e-22)
(0.77066583 0.1607545 -3.9390893e-22)
(0.73441766 0.207689 -7.8627747e-22)
(0.67767725 0.23234 0)
(0.58576894 0.23578114 -1.8515159e-22)
(0.45389379 0.197305 -6.0328042e-22)
(0.35483553 0.093076418 0)
(0.39142616 -0.027497669 -7.7455577e-22)
(0.8489133 0.052786946 3.8665119e-22)
(0.84330049 0.06315754 -6.0183951e-24)
(0.83634954 0.081696578 0)
(0.82916778 0.11143325 -7.8980747e-22)
(0.82377794 0.15210492 3.8973326e-22)
(0.8221874 0.19641226 0)
(0.82332375 0.23021396 0)
(0.81284032 0.24086282 0)
(0.7322771 0.2159597 5.0324972e-22)
(0.4991304 0.07806095 0)
(0.21919768 -0.11862642 4.3302033e-22)
(0.64397387 -0.013573277 -1.8855671e-20)
(0.91026929 0.1615866 0)
(0.94576626 0.22335368 0)
(0.9296184 0.22516107 -2.3474399e-23)
(0.89530907 0.20058975 1.8963103e-23)
(0.86555123 0.16722227 1.6532996e-23)
(0.84947495 0.13428731 3.6368088e-21)
(0.84523853 0.10302148 3.264472e-21)
(0.84719942 0.078230658 0)
(0.85058554 0.061481082 2.7391494e-21)
(0.70727261 -0.0087155027 1.7764869e-20)
(0.91634472 0.15915827 -2.0576765e-20)
(0.94817849 0.21729902 -5.7688059e-23)
(0.93113059 0.21934377 1.1753331e-20)
(0.90008516 0.19545673 -9.8953938e-21)
(0.87150808 0.16227312 1.6598973e-23)
(0.85415777 0.13109955 -7.3547869e-21)
(0.84849487 0.10170402 0)
(0.84925913 0.077585423 5.9524558e-21)
(0.8519019 0.061021794 0)
(0.7495192 -0.008059907 -3.3657794e-23)
(0.92358648 0.15842451 2.018631e-20)
(0.95142188 0.21369782 2.8437127e-23)
(0.9348078 0.2156262 -2.330506e-20)
(0.90608289 0.19149119 9.8399433e-21)
(0.87827603 0.15765754 1.636777e-23)
(0.85952365 0.12765353 7.3276987e-21)
(0.85207922 0.1002782 -6.5300175e-21)
(0.85153805 0.076980143 -5.929905e-21)
(0.85335804 0.060788306 0)
(0.78369058 -0.0039166521 -3.3795986e-23)
(0.92917715 0.15680808 5.7429499e-23)
(0.95387195 0.20981338 -2.8148393e-23)
(0.93755668 0.21172426 1.1543039e-20)
(0.91147289 0.18737125 1.8908774e-23)
(0.88508087 0.15285862 0)
(0.86527451 0.12380755 0)
(0.85591578 0.098329054 6.5291538e-21)
(0.85388152 0.076161085 0)
(0.85477809 0.060446098 0)
(0.85584577 0.05105391 -5.0430261e-21)
(0.81126244 0.0017174147 -3.2951079e-23)
(0.93382649 0.15492587 1.9651921e-20)
(0.95613033 0.20602734 0)