/*--------------------------------*- C++ -*----------------------------------*\
| =========                 |                                                 |
| \\      /  F ield         | OpenFOAM: The Open Source CFD Toolbox           |
|  \\    /   O peration     | Version:  2206                                  |
|   \\  /    A nd           | Website:  www.openfoam.com                      |
|    \\/     M anipulation  |                                                 |
\*---------------------------------------------------------------------------*/
FoamFile
{
    version     2.0;
    format      ascii;
    arch        "LSB;label=32;scalar=64";
    class       volScalarField;
    location    "0.01";
    object      alphat;
}
// * * * * * * * * * * * * * * * * * * * * * * * * * * * * * * * * * * * * * //

dimensions      [1 -1 -1 0 0 0 0];

internalField   nonuniform List<scalar> 
1396
(
2.7771996e-08
2.7771985e-08
2.7771973e-08
2.7771962e-08
2.7771949e-08
2.7771936e-08
2.7771923e-08
2.7771908e-08
2.7771889e-08
2.7771872e-08
2.7771854e-08
2.7771835e-08
2.7771815e-08
2.7771794e-08
2.7772062e-08
2.7772055e-08
2.7772048e-08
2.777204e-08
2.7772032e-08
2.7772024e-08
2.7772016e-08
2.7772004e-08
2.7771994e-08
2.7771984e-08
2.7771974e-08
2.7771962e-08
2.7771951e-08
2.777194e-08
2.7772112e-08
2.7772108e-08
2.7772104e-08
2.7772099e-08
2.7772092e-08
2.7772088e-08
2.7772083e-08
2.7772077e-08
2.7772072e-08
2.7772066e-08
2.777206e-08
2.7772054e-08
2.7772048e-08
2.7772043e-08
2.7772153e-08
2.777215e-08
2.7772148e-08
2.7772145e-08
2.7772142e-08
2.7772139e-08
2.7772137e-08
2.7772134e-08
2.7772131e-08
2.7772128e-08
2.7772125e-08
2.7772122e-08
2.7772119e-08
2.7772116e-08
2.7772185e-08
2.7772184e-08
2.7772182e-08
2.7772181e-08
2.7772179e-08
2.7772178e-08
2.7772176e-08
2.7772175e-08
2.7772173e-08
2.7772172e-08
2.777217e-08
2.7772169e-08
2.7772167e-08
2.7772166e-08
2.7772209e-08
2.7772209e-08
2.7772208e-08
2.7772207e-08
2.7772206e-08
2.7772205e-08
2.7772204e-08
2.7772203e-08
2.7772203e-08
2.7772202e-08
2.7772201e-08
2.77722e-08
2.7772199e-08
2.7772198e-08
2.7772227e-08
2.7772227e-08
2.7772226e-08
2.7772226e-08
2.7772225e-08
2.7772225e-08
2.7772224e-08
2.7772224e-08
2.7772223e-08
2.7772223e-08
2.7772222e-08
2.7772222e-08
2.7772221e-08
2.7772221e-08
2.777224e-08
2.777224e-08
2.777224e-08
2.777224e-08
2.7772239e-08
2.7772239e-08
2.7772239e-08
2.7772238e-08
2.7772238e-08
2.7772238e-08
2.7772237e-08
2.7772237e-08
2.7772237e-08
2.7772237e-08
2.7772267e-08
2.7772268e-08
2.7772268e-08
2.7772269e-08
2.7772269e-08
2.7772269e-08
2.777227e-08
2.777227e-08
2.777227e-08
2.7772264e-08
2.7772264e-08
2.7772265e-08
2.7772265e-08
2.7772265e-08
2.7772266e-08
2.7772266e-08
2.7772259e-08
2.777226e-08
2.777226e-08
2.7772261e-08
2.7772261e-08
2.7772254e-08
2.7772254e-08
2.7772255e-08
2.7772246e-08
2.7772247e-08
2.7772238e-08
2.7772248e-08
2.7772256e-08
2.7772262e-08
2.7772267e-08
2.7772271e-08
2.7772238e-08
2.7772248e-08
2.7772256e-08
2.7772262e-08
2.7772267e-08
2.7772271e-08
2.7772239e-08
2.7772249e-08
2.7772256e-08
2.7772262e-08
2.7772267e-08
2.7772271e-08
2.777224e-08
2.777225e-08
2.7772257e-08
2.7772263e-08
2.7772267e-08
2.7772271e-08
2.7772241e-08
2.777225e-08
2.7772257e-08
2.7772263e-08
2.7772268e-08
2.7772271e-08
2.7772229e-08
2.7772241e-08
2.7772251e-08
2.7772258e-08
2.7772263e-08
2.7772268e-08
2.7772271e-08
2.777223e-08
2.7772242e-08
2.7772251e-08
2.7772258e-08
2.7772264e-08
2.7772268e-08
2.7772272e-08
2.7772231e-08
2.7772243e-08
2.7772252e-08
2.7772259e-08
2.7772264e-08
2.7772268e-08
2.7772272e-08
2.7772232e-08
2.7772243e-08
2.7772252e-08
2.7772259e-08
2.7772264e-08
2.7772268e-08
2.7772272e-08
2.7772218e-08
2.7772233e-08
2.7772244e-08
2.7772253e-08
2.7772259e-08
2.7772264e-08
2.7772269e-08
2.7772272e-08
2.7772219e-08
2.7772234e-08
2.7772245e-08
2.7772253e-08
2.777226e-08
2.7772265e-08
2.7772269e-08
2.7772272e-08
2.7772221e-08
2.7772235e-08
2.7772246e-08
2.7772254e-08
2.777226e-08
2.7772265e-08
2.7772269e-08
2.7772272e-08
2.7772222e-08
2.7772236e-08
2.7772246e-08
2.7772254e-08
2.7772261e-08
2.7772265e-08
2.7772269e-08
2.7772273e-08
2.7772223e-08
2.7772237e-08
2.7772247e-08
2.7772255e-08
2.7772261e-08
2.7772266e-08
2.777227e-08
2.7772273e-08
2.7772052e-08
2.7772102e-08
2.7772139e-08
2.777217e-08
2.7772196e-08
2.7772216e-08
2.7772231e-08
2.7772243e-08
2.7772123e-08
2.7772151e-08
2.7772174e-08
2.7772195e-08
2.7772212e-08
2.7772227e-08
2.7772238e-08
2.7772247e-08
2.7772145e-08
2.7772166e-08
2.7772184e-08
2.7772199e-08
2.7772213e-08
2.7772225e-08
2.7772235e-08
2.7772244e-08
2.7772252e-08
2.7772165e-08
2.7772182e-08
2.7772195e-08
2.7772207e-08
2.7772217e-08
2.7772227e-08
2.7772235e-08
2.7772243e-08
2.777225e-08
2.7772255e-08
2.7772196e-08
2.7772206e-08
2.7772215e-08
2.7772223e-08
2.777223e-08
2.7772237e-08
2.7772244e-08
2.7772249e-08
2.7772255e-08
2.777221e-08
2.7772216e-08
2.7772224e-08
2.7772229e-08
2.7772235e-08
2.777224e-08
2.7772246e-08
2.777225e-08
2.7772255e-08
2.7772259e-08
2.7772227e-08
2.7772231e-08
2.7772236e-08
2.7772241e-08
2.7772245e-08
2.7772248e-08
2.7772252e-08
2.7772256e-08
2.7772259e-08
2.7772262e-08
2.7772239e-08
2.7772243e-08
2.7772246e-08
2.7772249e-08
2.7772252e-08
2.7772255e-08
2.7772257e-08
2.7772261e-08
2.7772263e-08
2.7772265e-08
2.7772249e-08
2.7772251e-08
2.7772253e-08
2.7772256e-08
2.7772258e-08
2.777226e-08
2.7772262e-08
2.7772264e-08
2.7772266e-08
2.7772256e-08
2.7772258e-08
2.7772259e-08
2.7772261e-08
2.7772262e-08
2.7772264e-08
2.7772266e-08
2.7772267e-08
2.7772269e-08
2.7772262e-08
2.7772263e-08
2.7772264e-08
2.7772265e-08
2.7772266e-08
2.7772268e-08
2.7772269e-08
2.777227e-08
2.7772271e-08
2.7772266e-08
2.7772267e-08
2.7772268e-08
2.7772269e-08
2.777227e-08
2.7772271e-08
2.7772272e-08
2.7772272e-08
2.777227e-08
2.777227e-08
2.7772271e-08
2.7772272e-08
2.7772272e-08
2.7772273e-08
2.7772274e-08
2.7772275e-08
2.7772273e-08
2.7772273e-08
2.7772274e-08
2.7772274e-08
2.7772275e-08
2.7772275e-08
2.7772276e-08
2.7769841e-08
2.7770901e-08
2.7770907e-08
2.7770953e-08
2.7771026e-08
2.7771119e-08
2.7771475e-08
2.7771475e-08
2.7771459e-08
2.7771456e-08
2.7771468e-08
2.7771488e-08
2.7771522e-08
2.7771567e-08
2.7771618e-08
2.7771671e-08
2.7771776e-08
2.777177e-08
2.7771762e-08
2.7771758e-08
2.7771752e-08
2.7771756e-08
2.7771764e-08
2.7771777e-08
2.7771795e-08
2.7771816e-08
2.777184e-08
2.7771867e-08
2.7771894e-08
2.7771921e-08
2.7771932e-08
2.7771928e-08
2.7771929e-08
2.7771932e-08
2.7771937e-08
2.7771945e-08
2.7771955e-08
2.7771966e-08
2.7771978e-08
2.7771992e-08
2.7772006e-08
2.777202e-08
2.7772034e-08
2.7772048e-08
2.777204e-08
2.7772042e-08
2.7772045e-08
2.777205e-08
2.7772055e-08
2.7772061e-08
2.7772067e-08
2.7772074e-08
2.7772082e-08
2.7772089e-08
2.7772097e-08
2.7772105e-08
2.7772113e-08
2.7772121e-08
2.7772115e-08
2.7772118e-08
2.7772121e-08
2.7772124e-08
2.7772127e-08
2.7772131e-08
2.7772135e-08
2.7772139e-08
2.7772143e-08
2.7772148e-08
2.7772152e-08
2.7772157e-08
2.7772161e-08
2.7772166e-08
2.7772165e-08
2.7772167e-08
2.7772169e-08
2.7772171e-08
2.7772173e-08
2.7772175e-08
2.7772178e-08
2.777218e-08
2.7772182e-08
2.7772185e-08
2.7772187e-08
2.777219e-08
2.7772193e-08
2.7772195e-08
2.7772198e-08
2.7772199e-08
2.7772201e-08
2.7772202e-08
2.7772203e-08
2.7772204e-08
2.7772206e-08
2.7772207e-08
2.7772208e-08
2.777221e-08
2.7772211e-08
2.7772213e-08
2.7772214e-08
2.7772216e-08
2.7772221e-08
2.7772221e-08
2.7772222e-08
2.7772223e-08
2.7772223e-08
2.7772224e-08
2.7772225e-08
2.7772226e-08
2.7772226e-08
2.7772227e-08
2.7772228e-08
2.7772229e-08
2.777223e-08
2.7772231e-08
2.7772237e-08
2.7772237e-08
2.7772237e-08
2.7772237e-08
2.7772238e-08
2.7772238e-08
2.7772238e-08
2.7772239e-08
2.7772239e-08
2.777224e-08
2.7719464e-08
2.7682926e-08
2.7643999e-08
2.7612444e-08
2.7421868e-08
2.7618653e-08
2.7456254e-08
2.7654518e-08
2.7546599e-08
2.7700408e-08
2.763716e-08
2.7573556e-08
2.7736806e-08
2.7704707e-08
2.7673161e-08
2.7759417e-08
2.7748888e-08
2.7732444e-08
2.7632713e-08
2.770089e-08
2.7741492e-08
2.7760041e-08
2.7662059e-08
2.7712066e-08
2.7745713e-08
2.7761578e-08
2.7670069e-08
2.7722622e-08
2.7751597e-08
2.7763726e-08
2.7736251e-08
2.7756997e-08
2.7765188e-08
2.7749207e-08
2.7762174e-08
2.7766583e-08
2.7758206e-08
2.7766327e-08
2.7767861e-08
2.7769997e-08
2.7771596e-08
2.7769456e-08
2.777596e-08
2.7776143e-08
2.7770883e-08
2.777901e-08
2.7781406e-08
2.7772479e-08
2.7772744e-08
2.7784916e-08
2.7773902e-08
2.7755297e-08
2.7785744e-08
2.7775183e-08
2.7721961e-08
2.7781255e-08
2.7775958e-08
2.7675779e-08
2.7771382e-08
2.7775671e-08
2.762265e-08
2.7756607e-08
2.7773424e-08
2.7769863e-08
2.7769677e-08
2.7769444e-08
2.7769052e-08
2.7768293e-08
2.7766697e-08
2.7764365e-08
2.7761601e-08
2.7759455e-08
2.7759282e-08
2.7761338e-08
2.7764551e-08
2.7767302e-08
2.7769014e-08
2.7771169e-08
2.7771143e-08
2.7771122e-08
2.7771103e-08
2.7771082e-08
2.777105e-08
2.7771008e-08
2.777096e-08
2.7770926e-08
2.7770938e-08
2.7771e-08
2.7771092e-08
2.7771194e-08
2.7771264e-08
2.77717e-08
2.7771695e-08
2.7771694e-08
2.7771693e-08
2.7771694e-08
2.7771696e-08
2.7771699e-08
2.7771703e-08
2.7771708e-08
2.7771715e-08
2.7771724e-08
2.7771734e-08
2.7771745e-08
2.7771757e-08
2.7771935e-08
2.7771935e-08
2.7771935e-08
2.7771936e-08
2.7771937e-08
2.7771939e-08
2.7771941e-08
2.7771944e-08
2.7771946e-08
2.777195e-08
2.7771953e-08
2.7771957e-08
2.7771961e-08
2.7771965e-08
2.7772056e-08
2.7772056e-08
2.7772056e-08
2.7772057e-08
2.7772058e-08
2.7772059e-08
2.777206e-08
2.7772061e-08
2.7772063e-08
2.7772064e-08
2.7772066e-08
2.7772068e-08
2.777207e-08
2.7772072e-08
2.7772125e-08
2.7772125e-08
2.7772125e-08
2.7772126e-08
2.7772126e-08
2.7772127e-08
2.7772127e-08
2.7772128e-08
2.7772129e-08
2.777213e-08
2.7772131e-08
2.7772132e-08
2.7772133e-08
2.7772134e-08
2.7772168e-08
2.7772168e-08
2.7772168e-08
2.7772169e-08
2.7772169e-08
2.7772169e-08
2.777217e-08
2.777217e-08
2.777217e-08
2.7772171e-08
2.7772171e-08
2.7772172e-08
2.7772173e-08
2.7772173e-08
2.7772197e-08
2.7772197e-08
2.7772197e-08
2.7772197e-08
2.7772197e-08
2.7772197e-08
2.7772198e-08
2.7772198e-08
2.7772198e-08
2.7772198e-08
2.7772199e-08
2.7772199e-08
2.7772199e-08
2.77722e-08
2.7772217e-08
2.7772217e-08
2.7772217e-08
2.7772217e-08
2.7772217e-08
2.7772217e-08
2.7772217e-08
2.7772217e-08
2.7772218e-08
2.7772218e-08
2.7772218e-08
2.7772218e-08
2.7772218e-08
2.7772219e-08
2.7772231e-08
2.7772231e-08
2.7772231e-08
2.7772231e-08
2.7772231e-08
2.7772231e-08
2.7772231e-08
2.7772231e-08
2.7772232e-08
2.7772232e-08
2.7772232e-08
2.7772232e-08
2.7772232e-08
2.7772232e-08
2.7772233e-08
2.7772219e-08
2.7772201e-08
2.7772175e-08
2.7772137e-08
2.7772078e-08
2.7771978e-08
2.7771786e-08
2.7771358e-08
2.7770802e-08
2.7772233e-08
2.7772219e-08
2.7772201e-08
2.7772175e-08
2.7772137e-08
2.7772078e-08
2.7771977e-08
2.7771784e-08
2.7771352e-08
2.7770713e-08
2.7772233e-08
2.7772219e-08
2.7772201e-08
2.7772175e-08
2.7772137e-08
2.7772077e-08
2.7771976e-08
2.7771783e-08
2.7771348e-08
2.7770629e-08
2.7772233e-08
2.7772219e-08
2.7772201e-08
2.7772175e-08
2.7772137e-08
2.7772077e-08
2.7771976e-08
2.7771781e-08
2.7771344e-08
2.7770536e-08
2.7772233e-08
2.7772219e-08
2.7772201e-08
2.7772175e-08
2.7772137e-08
2.7772077e-08
2.7771975e-08
2.777178e-08
2.7771339e-08
2.7770436e-08
2.7772233e-08
2.7772219e-08
2.7772201e-08
2.7772175e-08
2.7772136e-08
2.7772076e-08
2.7771974e-08
2.7771779e-08
2.7771334e-08
2.7770339e-08
2.7772232e-08
2.7772219e-08
2.7772201e-08
2.7772175e-08
2.7772136e-08
2.7772076e-08
2.7771974e-08
2.7771777e-08
2.7771329e-08
2.7770235e-08
2.7772232e-08
2.7772219e-08
2.7772201e-08
2.7772174e-08
2.7772136e-08
2.7772076e-08
2.7771973e-08
2.7771776e-08
2.7771325e-08
2.777013e-08
2.7772232e-08
2.7772219e-08
2.77722e-08
2.7772174e-08
2.7772136e-08
2.7772075e-08
2.7771973e-08
2.7771775e-08
2.7771323e-08
2.777001e-08
2.7772232e-08
2.7772219e-08
2.77722e-08
2.7772174e-08
2.7772136e-08
2.7772075e-08
2.7771972e-08
2.7771773e-08
2.7771317e-08
2.7769914e-08
2.7772232e-08
2.7772219e-08
2.77722e-08
2.7772174e-08
2.7772136e-08
2.7772075e-08
2.7771972e-08
2.7771772e-08
2.7771308e-08
2.7769834e-08
2.7772232e-08
2.7772219e-08
2.77722e-08
2.7772174e-08
2.7772135e-08
2.7772075e-08
2.7771971e-08
2.7771771e-08
2.7771305e-08
2.7769736e-08
2.7772232e-08
2.7772219e-08
2.77722e-08
2.7772174e-08
2.7772135e-08
2.7772074e-08
2.7771971e-08
2.777177e-08
2.7771301e-08
2.7769641e-08
2.7772232e-08
2.7772219e-08
2.77722e-08
2.7772174e-08
2.7772135e-08
2.7772074e-08
2.777197e-08
2.777177e-08
2.77713e-08
2.7769611e-08
2.7772e-08
2.777205e-08
2.7772088e-08
2.7772118e-08
2.7772142e-08
2.7771523e-08
2.7771731e-08
2.7771854e-08
2.7771942e-08
2.7772006e-08
2.7772054e-08
2.7772091e-08
2.777212e-08
2.7772144e-08
2.7790095e-08
2.7768564e-08
2.7771503e-08
2.7771566e-08
2.777175e-08
2.7771867e-08
2.777195e-08
2.7772012e-08
2.7772058e-08
2.7772094e-08
2.7772122e-08
2.7772145e-08
2.7973293e-08
2.7721381e-08
2.7780429e-08
2.776991e-08
2.7771456e-08
2.7771603e-08
2.7771769e-08
2.7771879e-08
2.7771959e-08
2.7772017e-08
2.7772062e-08
2.7772097e-08
2.7772125e-08
2.7772147e-08
2.7857902e-08
2.7746394e-08
2.777479e-08
2.7770663e-08
2.7771454e-08
2.7771636e-08
2.7771788e-08
2.7771892e-08
2.7771967e-08
2.7772023e-08
2.7772066e-08
2.77721e-08
2.7772127e-08
2.7772149e-08
2.780532e-08
2.7758591e-08
2.7772154e-08
2.7771007e-08
2.7771474e-08
2.7771666e-08
2.7771806e-08
2.7771904e-08
2.7771976e-08
2.777203e-08
2.7772071e-08
2.7772104e-08
2.777213e-08
2.7772151e-08
2.7781444e-08
2.7766065e-08
2.7771297e-08
2.7771204e-08
2.7771517e-08
2.7771698e-08
2.7771826e-08
2.7771917e-08
2.7771985e-08
2.7772036e-08
2.7772076e-08
2.7772107e-08
2.7772132e-08
2.7772152e-08
2.7771048e-08
2.7770672e-08
2.777125e-08
2.7771479e-08
2.7771663e-08
2.7771795e-08
2.7771891e-08
2.7771963e-08
2.7772018e-08
2.7772061e-08
2.7772095e-08
2.7772122e-08
2.7772144e-08
2.7772162e-08
2.7771415e-08
2.777153e-08
2.777167e-08
2.7771774e-08
2.7771862e-08
2.7771932e-08
2.7771989e-08
2.7772035e-08
2.7772072e-08
2.7772102e-08
2.7772127e-08
2.7772148e-08
2.7772165e-08
2.7772179e-08
2.7771803e-08
2.7771851e-08
2.7771901e-08
2.7771949e-08
2.7771992e-08
2.777203e-08
2.7772064e-08
2.7772092e-08
2.7772117e-08
2.7772138e-08
2.7772155e-08
2.7772171e-08
2.7772184e-08
2.7772195e-08
2.7771985e-08
2.7772006e-08
2.7772029e-08
2.7772053e-08
2.7772076e-08
2.7772098e-08
2.7772118e-08
2.7772136e-08
2.7772152e-08
2.7772166e-08
2.7772179e-08
2.777219e-08
2.77722e-08
2.7772208e-08
2.7772082e-08
2.7772092e-08
2.7772104e-08
2.7772118e-08
2.7772131e-08
2.7772144e-08
2.7772156e-08
2.7772168e-08
2.7772179e-08
2.7772189e-08
2.7772198e-08
2.7772206e-08
2.7772214e-08
2.777222e-08
2.777214e-08
2.7772145e-08
2.7772152e-08
2.777216e-08
2.7772168e-08
2.7772176e-08
2.7772185e-08
2.7772193e-08
2.77722e-08
2.7772207e-08
2.7772214e-08
2.777222e-08
2.7772225e-08
2.777223e-08
2.7772177e-08
2.777218e-08
2.7772185e-08
2.7772189e-08
2.7772195e-08
2.77722e-08
2.7772205e-08
2.7772211e-08
2.7772216e-08
2.7772221e-08
2.7772226e-08
2.7772231e-08
2.7772235e-08
2.7772239e-08
2.7772202e-08
2.7772204e-08
2.7772207e-08
2.777221e-08
2.7772214e-08
2.7772217e-08
2.7772221e-08
2.7772225e-08
2.7772229e-08
2.7772233e-08
2.7772236e-08
2.777224e-08
2.7772243e-08
2.7772246e-08
2.777222e-08
2.7772221e-08
2.7772223e-08
2.7772225e-08
2.7772228e-08
2.777223e-08
2.7772233e-08
2.7772236e-08
2.7772239e-08
2.7772242e-08
2.7772244e-08
2.7772247e-08
2.777225e-08
2.7772252e-08
2.7772233e-08
2.7772234e-08
2.7772235e-08
2.7772237e-08
2.7772239e-08
2.7772241e-08
2.7772243e-08
2.7772245e-08
2.7772247e-08
2.7772249e-08
2.7772251e-08
2.7772253e-08
2.7772255e-08
2.7772257e-08
2.7772295e-08
2.7772295e-08
2.7772295e-08
2.7772295e-08
2.7772295e-08
2.7772295e-08
2.7772295e-08
2.7772295e-08
2.7772295e-08
2.7772295e-08
2.7772294e-08
2.7772295e-08
2.7772295e-08
2.7772295e-08
2.7772295e-08
2.7772295e-08
2.7772295e-08
2.7772295e-08
2.7772295e-08
2.7772295e-08
2.7772295e-08
2.7772293e-08
2.7772294e-08
2.7772295e-08
2.7772295e-08
2.7772295e-08
2.7772295e-08
2.7772295e-08
2.7772295e-08
2.7772295e-08
2.7772295e-08
2.7772295e-08
2.7772295e-08
2.7772289e-08
2.7772293e-08
2.7772294e-08
2.7772295e-08
2.7772295e-08
2.7772295e-08
2.7772295e-08
2.7772295e-08
2.7772295e-08
2.7772295e-08
2.7772295e-08
2.7772295e-08
2.7772295e-08
2.7772289e-08
2.7772293e-08
2.7772294e-08
2.7772295e-08
2.7772295e-08
2.7772295e-08
2.7772295e-08
2.7772295e-08
2.7772295e-08
2.7772295e-08
2.7772295e-08
2.7772295e-08
2.7772295e-08
2.7772268e-08
2.7772289e-08
2.7772293e-08
2.7772294e-08
2.7772295e-08
2.7772295e-08
2.7772295e-08
2.7772295e-08
2.7772295e-08
2.7772295e-08
2.7772295e-08
2.7772295e-08
2.7772295e-08
2.7772295e-08
2.7772268e-08
2.7772289e-08
2.7772293e-08
2.7772294e-08
2.7772295e-08
2.7772295e-08
2.7772295e-08
2.7772295e-08
2.7772295e-08
2.7772295e-08
2.7772295e-08
2.7772295e-08
2.7772295e-08
2.7772295e-08
2.7772268e-08
2.7772289e-08
2.7772293e-08
2.7772294e-08
2.7772295e-08
2.7772295e-08
2.7772295e-08
2.7772295e-08
2.7772295e-08
2.7772295e-08
2.7772295e-08
2.7772295e-08
2.7772295e-08
2.7772295e-08
2.7772268e-08
2.7772289e-08
2.7772293e-08
2.7772294e-08
2.7772295e-08
2.7772295e-08
2.7772295e-08
2.7772295e-08
2.7772295e-08
2.7772295e-08
2.7772295e-08
2.7772295e-08
2.7772295e-08
2.7772295e-08
2.7772268e-08
2.7772289e-08
2.7772293e-08
2.7772294e-08
2.7772295e-08
2.7772295e-08
2.7772295e-08
2.7772295e-08
2.7772295e-08
2.7772295e-08
2.7772295e-08
2.7772295e-08
2.7772295e-08
2.7772295e-08
2.7772268e-08
2.7772289e-08
2.7772293e-08
2.7772294e-08
2.7772295e-08
2.7772295e-08
2.7772295e-08
2.7772295e-08
2.7772295e-08
2.7772295e-08
2.7772295e-08
2.7772295e-08
2.7772295e-08
2.7772268e-08
2.7772289e-08
2.7772293e-08
2.7772294e-08
2.7772295e-08
2.7772295e-08
2.7772295e-08
2.7772295e-08
2.7772295e-08
2.7772295e-08
2.7772295e-08
2.7772295e-08
2.7772268e-08
2.7772289e-08
2.7772293e-08
2.7772294e-08
2.7772295e-08
2.7772295e-08
2.7772295e-08
2.7772295e-08
2.7772295e-08
2.7772295e-08
2.7772295e-08
2.7772268e-08
2.7772289e-08
2.7772293e-08
2.7772294e-08
2.7772295e-08
2.7772295e-08
2.7772295e-08
2.7772295e-08
2.7772295e-08
2.7772295e-08
2.7772284e-08
2.7772291e-08
2.7772291e-08
2.7772291e-08
2.7772291e-08
2.7772291e-08
2.7772291e-08
2.7772291e-08
2.7772291e-08
2.7772291e-08
2.7772291e-08
2.7772291e-08
2.7772291e-08
2.7772291e-08
2.7772293e-08
2.7772293e-08
2.7772293e-08
2.7772293e-08
2.7772293e-08
2.7772293e-08
2.7772293e-08
2.7772293e-08
2.7772293e-08
2.7772293e-08
2.7772293e-08
2.7772293e-08
2.7772293e-08
2.7772293e-08
2.7772294e-08
2.7772294e-08
2.7772294e-08
2.7772294e-08
2.7772294e-08
2.7772294e-08
2.7772294e-08
2.7772294e-08
2.7772293e-08
2.7772293e-08
2.7772294e-08
2.7772294e-08
2.7772294e-08
2.7772292e-08
2.7772292e-08
2.7772292e-08
2.7772292e-08
2.7772292e-08
2.7772292e-08
2.7772292e-08
2.7772292e-08
2.7772292e-08
2.7772292e-08
2.7772292e-08
2.7772292e-08
2.7772292e-08
2.7772292e-08
2.7772284e-08
2.7772284e-08
2.7772284e-08
2.7772284e-08
2.7772284e-08
2.7772284e-08
2.7772284e-08
2.7772284e-08
2.7772284e-08
2.7772284e-08
2.7772285e-08
2.7772285e-08
2.7772285e-08
2.7772285e-08
2.7772295e-08
2.7772295e-08
2.7772295e-08
2.7772295e-08
2.7772295e-08
2.7772295e-08
2.7772295e-08
2.7772295e-08
2.7772295e-08
2.7772295e-08
2.7772295e-08
2.7772295e-08
2.7772295e-08
2.7772295e-08
2.7772295e-08
2.7772295e-08
2.7772295e-08
2.7772295e-08
2.7772295e-08
2.7772295e-08
2.7772295e-08
2.7772295e-08
2.7772295e-08
2.7772295e-08
2.7772295e-08
2.7772295e-08
2.7772295e-08
2.7772295e-08
2.7772295e-08
2.7772294e-08
2.7772295e-08
2.7772295e-08
2.7772294e-08
2.7772295e-08
2.7772295e-08
2.7772294e-08
2.7772293e-08
2.7772295e-08
2.7772294e-08
2.7772293e-08
2.7772294e-08
2.7772293e-08
2.7772278e-08
2.7772276e-08
2.7772275e-08
2.7772274e-08
2.7772273e-08
2.7772271e-08
2.777227e-08
2.7772269e-08
2.777229e-08
2.777229e-08
2.777229e-08
2.7772289e-08
2.7772289e-08
2.7772289e-08
2.7772293e-08
2.7772293e-08
2.7772293e-08
2.7772293e-08
2.7772293e-08
2.7772294e-08
2.7772294e-08
2.7772294e-08
2.7772294e-08
2.7772295e-08
2.7772295e-08
2.7772295e-08
2.7772295e-08
2.7772295e-08
2.7772295e-08
2.7772295e-08
2.7772295e-08
2.7772285e-08
2.7772285e-08
2.7772285e-08
2.7772285e-08
2.7772285e-08
2.7772285e-08
2.7772285e-08
2.7772285e-08
2.7772285e-08
2.7772285e-08
2.7772285e-08
2.7772285e-08
2.7772285e-08
2.7772286e-08
2.7772292e-08
2.7772292e-08
2.7772292e-08
2.7772286e-08
2.7772286e-08
2.7772286e-08
2.7772295e-08
2.7772295e-08
2.7772295e-08
2.7772295e-08
2.7772295e-08
2.7772295e-08
2.7772295e-08
2.7772295e-08
2.7772295e-08
2.7772295e-08
)
;

boundaryField
{
    Side
    {
        type            empty;
    }
    Inlet
    {
        type            calculated;
        value           nonuniform List<scalar> 
15
(
3.9592188e-07
3.9592188e-07
3.9592188e-07
3.9592188e-07
3.9592188e-07
3.9592188e-07
3.9592188e-07
3.9592188e-07
3.9592188e-07
3.9592188e-07
2.7772295e-08
2.7772295e-08
2.7772295e-08
3.9592188e-07
3.9592188e-07
)
;
    }
    Airfoil
    {
        type            compressible::alphatWallFunction;
        value           nonuniform List<scalar> 0();
    }
    Outlet
    {
        type            zeroGradient;
    }
    Flap
    {
        type            compressible::alphatWallFunction;
        value           nonuniform List<scalar> 0();
    }
    procBoundary5to4
    {
        type            processor;
        value           nonuniform List<scalar> 
189
(
2.7771907e-08
2.7771887e-08
2.777187e-08
2.777185e-08
2.7771829e-08
2.7771807e-08
2.7771784e-08
2.7771759e-08
2.7771733e-08
2.7771704e-08
2.7771666e-08
2.7771632e-08
2.7771594e-08
2.7771554e-08
2.7772266e-08
2.7772266e-08
2.7772267e-08
2.7772267e-08
2.7772267e-08
2.7772267e-08
2.7772263e-08
2.7772263e-08
2.7772263e-08
2.7772258e-08
2.7772259e-08
2.7772259e-08
2.7772253e-08
2.7772253e-08
2.7772253e-08
2.7772245e-08
2.7772245e-08
2.7772235e-08
2.7772236e-08
2.7772236e-08
2.7772266e-08
2.7772223e-08
2.7772225e-08
2.7772225e-08
2.7772227e-08
2.7772227e-08
2.7772227e-08
2.7772212e-08
2.7772213e-08
2.7772215e-08
2.7772216e-08
2.7772216e-08
2.7772197e-08
2.7772199e-08
2.7772201e-08
2.7772202e-08
2.7772205e-08
2.7772205e-08
2.7771991e-08
2.7772088e-08
2.7772088e-08
2.7772118e-08
2.7772118e-08
2.7772148e-08
2.7772185e-08
2.7772185e-08
2.776974e-08
2.7769739e-08
2.7769754e-08
2.7769759e-08
2.7769759e-08
2.7768202e-08
2.7770963e-08
2.7770948e-08
2.7770923e-08
2.7770912e-08
2.7770917e-08
2.7770917e-08
2.7771525e-08
2.7771507e-08
2.7771495e-08
2.7771486e-08
2.7771486e-08
2.7768179e-08
2.7766987e-08
2.7764294e-08
2.7757671e-08
2.774328e-08
2.774328e-08
2.7630669e-08
2.7537125e-08
2.744884e-08
2.744884e-08
2.7087062e-08
2.7185603e-08
2.7385029e-08
2.7385029e-08
2.7511472e-08
2.7630988e-08
2.7703147e-08
2.7703147e-08
2.7520214e-08
2.7544094e-08
2.7536092e-08
2.7691703e-08
2.7691703e-08
2.7713573e-08
2.7714363e-08
2.7720619e-08
2.7709533e-08
2.7686223e-08
2.7630951e-08
2.754467e-08
2.7427608e-08
2.7292219e-08
2.7162921e-08
2.7162921e-08
2.7772141e-08
2.7771992e-08
2.7772044e-08
2.7772084e-08
2.7772115e-08
2.7772139e-08
2.7772139e-08
2.777147e-08
2.7771708e-08
2.7771838e-08
2.777193e-08
2.777193e-08
2.7808066e-08
2.7766299e-08
2.7771627e-08
2.7771627e-08
2.8246374e-08
2.7670748e-08
2.7670748e-08
2.7772294e-08
2.7772294e-08
2.7772295e-08
2.7772295e-08
2.7772295e-08
2.7772293e-08
2.7772293e-08
2.7772289e-08
2.7772289e-08
2.7772268e-08
2.7772268e-08
2.7772268e-08
2.7772284e-08
2.7772284e-08
2.7772284e-08
2.7772284e-08
2.7772284e-08
2.7772284e-08
2.7772284e-08
2.7772284e-08
2.7772284e-08
2.7772284e-08
2.7772284e-08
2.7772284e-08
2.7772284e-08
2.7772291e-08
2.7772291e-08
2.7772295e-08
2.7772295e-08
2.7772295e-08
2.7772295e-08
2.7772295e-08
2.7772295e-08
2.7772295e-08
2.7772295e-08
2.7772295e-08
2.7772295e-08
2.7772295e-08
2.7772295e-08
2.7772295e-08
2.7772295e-08
2.7772295e-08
2.7772294e-08
2.7772294e-08
2.7772293e-08
2.7772293e-08
2.7772293e-08
2.7772291e-08
2.7772291e-08
2.7772291e-08
2.7772295e-08
2.7772295e-08
2.7772295e-08
2.7772295e-08
2.7772295e-08
2.7772295e-08
2.7772295e-08
2.7772295e-08
2.7772295e-08
)
;
    }
    procBoundary5to6
    {
        type            processor;
        value           nonuniform List<scalar> 
188
(
2.7772251e-08
2.777225e-08
2.777225e-08
2.777225e-08
2.777225e-08
2.777225e-08
2.7772249e-08
2.7772249e-08
2.7772249e-08
2.7772249e-08
2.7772249e-08
2.7772248e-08
2.7772248e-08
2.7772248e-08
2.7772252e-08
2.7772255e-08
2.7772258e-08
2.7772261e-08
2.7772259e-08
2.7772259e-08
2.7772262e-08
2.7772265e-08
2.7772268e-08
2.7772268e-08
2.7772268e-08
2.7772271e-08
2.7772273e-08
2.7772274e-08
2.7772274e-08
2.7772275e-08
2.7772276e-08
2.7772286e-08
2.7772286e-08
2.7772286e-08
2.7772276e-08
2.7772286e-08
2.777224e-08
2.7772241e-08
2.7772241e-08
2.7772242e-08
2.7772248e-08
2.7772248e-08
2.7772248e-08
2.7772248e-08
2.7772249e-08
2.7772249e-08
2.7772249e-08
2.7772249e-08
2.7772249e-08
2.777224e-08
2.7772249e-08
2.7772242e-08
2.7772242e-08
2.7772242e-08
2.7772242e-08
2.7772242e-08
2.7772242e-08
2.7772242e-08
2.7772242e-08
2.7772242e-08
2.7772242e-08
2.7772242e-08
2.7772243e-08
2.7772243e-08
2.7772243e-08
2.7772243e-08
2.7772243e-08
2.7772243e-08
2.7772243e-08
2.7772243e-08
2.7772243e-08
2.7772243e-08
2.7772243e-08
2.7772243e-08
2.7772243e-08
2.7772243e-08
2.7772243e-08
2.7772243e-08
2.7772243e-08
2.7772279e-08
2.7772243e-08
2.7772244e-08
2.7772245e-08
2.7772246e-08
2.7772247e-08
2.7772249e-08
2.777225e-08
2.7772252e-08
2.7772253e-08
2.7772255e-08
2.7772257e-08
2.7772258e-08
2.777226e-08
2.7772261e-08
2.777228e-08
2.7772295e-08
2.7772295e-08
2.7772295e-08
2.7772295e-08
2.7772295e-08
2.7772295e-08
2.7772295e-08
2.7772295e-08
2.7772295e-08
2.7772294e-08
2.7772294e-08
2.7772294e-08
2.7772294e-08
2.7772294e-08
2.7772294e-08
2.7772295e-08
2.7772295e-08
2.7772295e-08
2.7772295e-08
2.7772295e-08
2.7772295e-08
2.7772295e-08
2.7772294e-08
2.7772295e-08
2.7772294e-08
2.7772294e-08
2.7772294e-08
2.7772294e-08
2.7772294e-08
2.7772294e-08
2.7772294e-08
2.7772294e-08
2.7772294e-08
2.7772294e-08
2.7772294e-08
2.7772294e-08
2.7772294e-08
2.7772294e-08
2.7772294e-08
2.7772295e-08
2.7772295e-08
2.7772295e-08
2.7772295e-08
2.7772295e-08
2.7772295e-08
2.7772295e-08
2.7772295e-08
2.7772295e-08
2.7772295e-08
2.7772295e-08
2.7772295e-08
2.7772295e-08
2.7772295e-08
2.7772295e-08
2.7772295e-08
2.7772295e-08
2.7772295e-08
2.7772279e-08
2.777229e-08
2.777229e-08
2.777229e-08
2.7772293e-08
2.7772293e-08
2.7772294e-08
2.7772294e-08
2.7772295e-08
2.7772295e-08
2.7772295e-08
2.7772295e-08
2.7772295e-08
2.7772295e-08
2.7772295e-08
2.7772295e-08
2.7772295e-08
2.7772292e-08
2.7772292e-08
2.7772292e-08
2.7772292e-08
2.7772292e-08
2.7772292e-08
2.7772292e-08
2.7772292e-08
2.7772292e-08
2.7772292e-08
2.7772292e-08
2.7772294e-08
2.7772294e-08
2.7772292e-08
2.7772294e-08
2.7772292e-08
2.7772292e-08
2.7772292e-08
2.7772286e-08
)
;
    }
}


// ************************************************************************* //
