/*--------------------------------*- C++ -*----------------------------------*\
| =========                 |                                                 |
| \\      /  F ield         | OpenFOAM: The Open Source CFD Toolbox           |
|  \\    /   O peration     | Version:  2206                                  |
|   \\  /    A nd           | Website:  www.openfoam.com                      |
|    \\/     M anipulation  |                                                 |
\*---------------------------------------------------------------------------*/
FoamFile
{
    version     2.0;
    format      ascii;
    arch        "LSB;label=32;scalar=64";
    class       volScalarField;
    location    "0.01";
    object      nut;
}
// * * * * * * * * * * * * * * * * * * * * * * * * * * * * * * * * * * * * * //

dimensions      [0 2 -1 0 0 0 0];

internalField   nonuniform List<scalar> 
1396
(
2.7772022e-08
2.7772011e-08
2.7772e-08
2.7771988e-08
2.7771976e-08
2.7771963e-08
2.7771949e-08
2.7771935e-08
2.7771916e-08
2.7771899e-08
2.777188e-08
2.7771861e-08
2.7771841e-08
2.7771821e-08
2.7772088e-08
2.7772081e-08
2.7772074e-08
2.7772067e-08
2.7772059e-08
2.7772051e-08
2.7772042e-08
2.7772031e-08
2.7772021e-08
2.7772011e-08
2.7772e-08
2.7771989e-08
2.7771978e-08
2.7771966e-08
2.7772139e-08
2.7772135e-08
2.777213e-08
2.7772126e-08
2.7772119e-08
2.7772114e-08
2.7772109e-08
2.7772104e-08
2.7772098e-08
2.7772093e-08
2.7772087e-08
2.7772081e-08
2.7772075e-08
2.7772069e-08
2.7772179e-08
2.7772177e-08
2.7772174e-08
2.7772172e-08
2.7772169e-08
2.7772166e-08
2.7772163e-08
2.777216e-08
2.7772157e-08
2.7772155e-08
2.7772152e-08
2.7772149e-08
2.7772146e-08
2.7772143e-08
2.7772212e-08
2.777221e-08
2.7772209e-08
2.7772207e-08
2.7772206e-08
2.7772204e-08
2.7772203e-08
2.7772201e-08
2.77722e-08
2.7772198e-08
2.7772197e-08
2.7772195e-08
2.7772194e-08
2.7772192e-08
2.7772236e-08
2.7772235e-08
2.7772234e-08
2.7772233e-08
2.7772233e-08
2.7772232e-08
2.7772231e-08
2.777223e-08
2.7772229e-08
2.7772228e-08
2.7772228e-08
2.7772227e-08
2.7772226e-08
2.7772225e-08
2.7772254e-08
2.7772253e-08
2.7772253e-08
2.7772252e-08
2.7772252e-08
2.7772251e-08
2.7772251e-08
2.777225e-08
2.777225e-08
2.7772249e-08
2.7772249e-08
2.7772248e-08
2.7772248e-08
2.7772248e-08
2.7772267e-08
2.7772267e-08
2.7772266e-08
2.7772266e-08
2.7772266e-08
2.7772266e-08
2.7772265e-08
2.7772265e-08
2.7772265e-08
2.7772264e-08
2.7772264e-08
2.7772264e-08
2.7772263e-08
2.7772263e-08
2.7772294e-08
2.7772295e-08
2.7772295e-08
2.7772295e-08
2.7772295e-08
2.7772296e-08
2.7772296e-08
2.7772297e-08
2.7772297e-08
2.777229e-08
2.7772291e-08
2.7772291e-08
2.7772292e-08
2.7772292e-08
2.7772293e-08
2.7772293e-08
2.7772286e-08
2.7772287e-08
2.7772287e-08
2.7772287e-08
2.7772288e-08
2.7772281e-08
2.7772281e-08
2.7772282e-08
2.7772273e-08
2.7772274e-08
2.7772264e-08
2.7772275e-08
2.7772282e-08
2.7772288e-08
2.7772293e-08
2.7772297e-08
2.7772265e-08
2.7772275e-08
2.7772283e-08
2.7772289e-08
2.7772293e-08
2.7772297e-08
2.7772266e-08
2.7772276e-08
2.7772283e-08
2.7772289e-08
2.7772294e-08
2.7772298e-08
2.7772267e-08
2.7772276e-08
2.7772284e-08
2.7772289e-08
2.7772294e-08
2.7772298e-08
2.7772267e-08
2.7772277e-08
2.7772284e-08
2.777229e-08
2.7772294e-08
2.7772298e-08
2.7772255e-08
2.7772268e-08
2.7772277e-08
2.7772284e-08
2.777229e-08
2.7772294e-08
2.7772298e-08
2.7772257e-08
2.7772269e-08
2.7772278e-08
2.7772285e-08
2.777229e-08
2.7772295e-08
2.7772298e-08
2.7772258e-08
2.777227e-08
2.7772278e-08
2.7772285e-08
2.777229e-08
2.7772295e-08
2.7772298e-08
2.7772259e-08
2.777227e-08
2.7772279e-08
2.7772285e-08
2.7772291e-08
2.7772295e-08
2.7772298e-08
2.7772244e-08
2.7772259e-08
2.7772271e-08
2.7772279e-08
2.7772286e-08
2.7772291e-08
2.7772295e-08
2.7772299e-08
2.7772246e-08
2.777226e-08
2.7772271e-08
2.777228e-08
2.7772286e-08
2.7772291e-08
2.7772295e-08
2.7772299e-08
2.7772247e-08
2.7772261e-08
2.7772272e-08
2.777228e-08
2.7772287e-08
2.7772292e-08
2.7772296e-08
2.7772299e-08
2.7772249e-08
2.7772263e-08
2.7772273e-08
2.7772281e-08
2.7772287e-08
2.7772292e-08
2.7772296e-08
2.7772299e-08
2.777225e-08
2.7772264e-08
2.7772273e-08
2.7772281e-08
2.7772287e-08
2.7772292e-08
2.7772296e-08
2.7772299e-08
2.7772079e-08
2.7772129e-08
2.7772165e-08
2.7772196e-08
2.7772222e-08
2.7772243e-08
2.7772258e-08
2.777227e-08
2.777215e-08
2.7772178e-08
2.77722e-08
2.7772222e-08
2.7772239e-08
2.7772253e-08
2.7772265e-08
2.7772274e-08
2.7772172e-08
2.7772193e-08
2.777221e-08
2.7772225e-08
2.777224e-08
2.7772251e-08
2.7772262e-08
2.7772271e-08
2.7772278e-08
2.7772192e-08
2.7772208e-08
2.7772221e-08
2.7772234e-08
2.7772244e-08
2.7772253e-08
2.7772262e-08
2.777227e-08
2.7772276e-08
2.7772282e-08
2.7772222e-08
2.7772233e-08
2.7772241e-08
2.777225e-08
2.7772257e-08
2.7772264e-08
2.777227e-08
2.7772276e-08
2.7772281e-08
2.7772236e-08
2.7772243e-08
2.777225e-08
2.7772256e-08
2.7772262e-08
2.7772267e-08
2.7772272e-08
2.7772277e-08
2.7772281e-08
2.7772285e-08
2.7772253e-08
2.7772258e-08
2.7772263e-08
2.7772268e-08
2.7772271e-08
2.7772275e-08
2.7772279e-08
2.7772282e-08
2.7772286e-08
2.7772289e-08
2.7772266e-08
2.7772269e-08
2.7772273e-08
2.7772276e-08
2.7772278e-08
2.7772281e-08
2.7772284e-08
2.7772287e-08
2.7772289e-08
2.7772292e-08
2.7772275e-08
2.7772278e-08
2.777228e-08
2.7772283e-08
2.7772284e-08
2.7772286e-08
2.7772289e-08
2.7772291e-08
2.7772293e-08
2.7772283e-08
2.7772285e-08
2.7772286e-08
2.7772288e-08
2.7772289e-08
2.7772291e-08
2.7772292e-08
2.7772294e-08
2.7772295e-08
2.7772288e-08
2.777229e-08
2.7772291e-08
2.7772292e-08
2.7772293e-08
2.7772294e-08
2.7772295e-08
2.7772297e-08
2.7772298e-08
2.7772293e-08
2.7772294e-08
2.7772295e-08
2.7772295e-08
2.7772296e-08
2.7772297e-08
2.7772298e-08
2.7772299e-08
2.7772297e-08
2.7772297e-08
2.7772298e-08
2.7772298e-08
2.7772299e-08
2.77723e-08
2.77723e-08
2.7772301e-08
2.7772299e-08
2.77723e-08
2.77723e-08
2.7772301e-08
2.7772301e-08
2.7772302e-08
2.7772302e-08
2.7769868e-08
2.7770928e-08
2.7770933e-08
2.7770979e-08
2.7771052e-08
2.7771145e-08
2.7771502e-08
2.7771502e-08
2.7771486e-08
2.7771482e-08
2.7771495e-08
2.7771515e-08
2.7771549e-08
2.7771593e-08
2.7771644e-08
2.7771698e-08
2.7771802e-08
2.7771797e-08
2.7771788e-08
2.7771785e-08
2.7771779e-08
2.7771783e-08
2.777179e-08
2.7771803e-08
2.7771821e-08
2.7771843e-08
2.7771867e-08
2.7771893e-08
2.7771921e-08
2.7771948e-08
2.7771958e-08
2.7771955e-08
2.7771956e-08
2.7771959e-08
2.7771964e-08
2.7771972e-08
2.7771981e-08
2.7771992e-08
2.7772005e-08
2.7772018e-08
2.7772032e-08
2.7772046e-08
2.7772061e-08
2.7772075e-08
2.7772066e-08
2.7772069e-08
2.7772072e-08
2.7772076e-08
2.7772082e-08
2.7772087e-08
2.7772094e-08
2.7772101e-08
2.7772108e-08
2.7772116e-08
2.7772124e-08
2.7772132e-08
2.777214e-08
2.7772147e-08
2.7772142e-08
2.7772145e-08
2.7772147e-08
2.7772151e-08
2.7772154e-08
2.7772158e-08
2.7772162e-08
2.7772166e-08
2.777217e-08
2.7772174e-08
2.7772179e-08
2.7772183e-08
2.7772188e-08
2.7772192e-08
2.7772192e-08
2.7772194e-08
2.7772196e-08
2.7772197e-08
2.77722e-08
2.7772202e-08
2.7772204e-08
2.7772207e-08
2.7772209e-08
2.7772212e-08
2.7772214e-08
2.7772217e-08
2.7772219e-08
2.7772222e-08
2.7772225e-08
2.7772226e-08
2.7772227e-08
2.7772228e-08
2.777223e-08
2.7772231e-08
2.7772232e-08
2.7772233e-08
2.7772235e-08
2.7772236e-08
2.7772238e-08
2.7772239e-08
2.7772241e-08
2.7772242e-08
2.7772248e-08
2.7772248e-08
2.7772249e-08
2.7772249e-08
2.777225e-08
2.7772251e-08
2.7772251e-08
2.7772252e-08
2.7772253e-08
2.7772254e-08
2.7772255e-08
2.7772255e-08
2.7772256e-08
2.7772257e-08
2.7772263e-08
2.7772263e-08
2.7772264e-08
2.7772264e-08
2.7772264e-08
2.7772265e-08
2.7772265e-08
2.7772265e-08
2.7772266e-08
2.7772266e-08
2.7723637e-08
2.7692302e-08
2.7661496e-08
2.7639144e-08
2.7507951e-08
2.7650461e-08
2.755455e-08
2.768346e-08
2.7634248e-08
2.7719735e-08
2.7696873e-08
2.7721272e-08
2.7745458e-08
2.7734584e-08
2.7754209e-08
2.7761578e-08
2.7758317e-08
2.7764227e-08
2.7691721e-08
2.7725577e-08
2.7749318e-08
2.7762034e-08
2.7711088e-08
2.7732198e-08
2.775211e-08
2.7763245e-08
2.771036e-08
2.7738818e-08
2.77568e-08
2.7765155e-08
2.7748625e-08
2.7761035e-08
2.7766404e-08
2.7757734e-08
2.776511e-08
2.7767625e-08
2.7762995e-08
2.7768205e-08
2.7768691e-08
2.7771427e-08
2.7772392e-08
2.7770035e-08
2.7774449e-08
2.7775827e-08
2.7771222e-08
2.7775588e-08
2.778005e-08
2.7772608e-08
2.7769375e-08
2.7782777e-08
2.7773845e-08
2.7754401e-08
2.7783372e-08
2.7774988e-08
2.772551e-08
2.777943e-08
2.7775713e-08
2.7684547e-08
2.7770776e-08
2.7775479e-08
2.7636382e-08
2.775752e-08
2.7773434e-08
2.7769889e-08
2.7769705e-08
2.7769476e-08
2.7769095e-08
2.7768365e-08
2.7766836e-08
2.7764641e-08
2.7762097e-08
2.7760213e-08
2.7760195e-08
2.7762176e-08
2.7765112e-08
2.7767565e-08
2.7769115e-08
2.7771196e-08
2.7771169e-08
2.7771149e-08
2.777113e-08
2.7771108e-08
2.7771077e-08
2.7771036e-08
2.7770989e-08
2.7770957e-08
2.7770969e-08
2.777103e-08
2.7771121e-08
2.777122e-08
2.7771288e-08
2.7771726e-08
2.7771722e-08
2.777172e-08
2.777172e-08
2.7771721e-08
2.7771723e-08
2.7771726e-08
2.7771729e-08
2.7771735e-08
2.7771742e-08
2.7771751e-08
2.7771761e-08
2.7771772e-08
2.7771784e-08
2.7771962e-08
2.7771961e-08
2.7771962e-08
2.7771963e-08
2.7771964e-08
2.7771966e-08
2.7771968e-08
2.777197e-08
2.7771973e-08
2.7771976e-08
2.777198e-08
2.7771984e-08
2.7771988e-08
2.7771992e-08
2.7772082e-08
2.7772082e-08
2.7772083e-08
2.7772084e-08
2.7772084e-08
2.7772085e-08
2.7772087e-08
2.7772088e-08
2.7772089e-08
2.7772091e-08
2.7772093e-08
2.7772094e-08
2.7772096e-08
2.7772099e-08
2.7772151e-08
2.7772152e-08
2.7772152e-08
2.7772152e-08
2.7772153e-08
2.7772153e-08
2.7772154e-08
2.7772155e-08
2.7772156e-08
2.7772156e-08
2.7772157e-08
2.7772158e-08
2.7772159e-08
2.7772161e-08
2.7772195e-08
2.7772195e-08
2.7772195e-08
2.7772195e-08
2.7772195e-08
2.7772196e-08
2.7772196e-08
2.7772197e-08
2.7772197e-08
2.7772198e-08
2.7772198e-08
2.7772199e-08
2.7772199e-08
2.77722e-08
2.7772223e-08
2.7772223e-08
2.7772223e-08
2.7772224e-08
2.7772224e-08
2.7772224e-08
2.7772224e-08
2.7772224e-08
2.7772225e-08
2.7772225e-08
2.7772225e-08
2.7772226e-08
2.7772226e-08
2.7772226e-08
2.7772243e-08
2.7772243e-08
2.7772243e-08
2.7772243e-08
2.7772244e-08
2.7772244e-08
2.7772244e-08
2.7772244e-08
2.7772244e-08
2.7772244e-08
2.7772245e-08
2.7772245e-08
2.7772245e-08
2.7772245e-08
2.7772258e-08
2.7772258e-08
2.7772258e-08
2.7772258e-08
2.7772258e-08
2.7772258e-08
2.7772258e-08
2.7772258e-08
2.7772258e-08
2.7772258e-08
2.7772258e-08
2.7772258e-08
2.7772259e-08
2.7772259e-08
2.7772259e-08
2.7772246e-08
2.7772228e-08
2.7772202e-08
2.7772164e-08
2.7772105e-08
2.7772004e-08
2.7771813e-08
2.7771385e-08
2.7770806e-08
2.7772259e-08
2.7772246e-08
2.7772228e-08
2.7772202e-08
2.7772164e-08
2.7772104e-08
2.7772003e-08
2.7771811e-08
2.7771379e-08
2.7770725e-08
2.7772259e-08
2.7772246e-08
2.7772228e-08
2.7772202e-08
2.7772164e-08
2.7772104e-08
2.7772003e-08
2.777181e-08
2.7771375e-08
2.7770648e-08
2.7772259e-08
2.7772246e-08
2.7772227e-08
2.7772202e-08
2.7772163e-08
2.7772104e-08
2.7772002e-08
2.7771808e-08
2.7771371e-08
2.7770563e-08
2.7772259e-08
2.7772246e-08
2.7772227e-08
2.7772201e-08
2.7772163e-08
2.7772103e-08
2.7772001e-08
2.7771807e-08
2.7771366e-08
2.777047e-08
2.7772259e-08
2.7772246e-08
2.7772227e-08
2.7772201e-08
2.7772163e-08
2.7772103e-08
2.7772001e-08
2.7771805e-08
2.7771361e-08
2.7770381e-08
2.7772259e-08
2.7772246e-08
2.7772227e-08
2.7772201e-08
2.7772163e-08
2.7772103e-08
2.7772e-08
2.7771804e-08
2.7771356e-08
2.7770285e-08
2.7772259e-08
2.7772246e-08
2.7772227e-08
2.7772201e-08
2.7772163e-08
2.7772102e-08
2.7772e-08
2.7771803e-08
2.7771353e-08
2.7770188e-08
2.7772259e-08
2.7772246e-08
2.7772227e-08
2.7772201e-08
2.7772162e-08
2.7772102e-08
2.7771999e-08
2.7771801e-08
2.777135e-08
2.7770079e-08
2.7772259e-08
2.7772246e-08
2.7772227e-08
2.7772201e-08
2.7772162e-08
2.7772102e-08
2.7771999e-08
2.77718e-08
2.7771344e-08
2.776999e-08
2.7772259e-08
2.7772246e-08
2.7772227e-08
2.7772201e-08
2.7772162e-08
2.7772102e-08
2.7771998e-08
2.7771799e-08
2.7771335e-08
2.7769913e-08
2.7772259e-08
2.7772245e-08
2.7772227e-08
2.7772201e-08
2.7772162e-08
2.7772101e-08
2.7771998e-08
2.7771798e-08
2.7771332e-08
2.7769818e-08
2.7772259e-08
2.7772245e-08
2.7772227e-08
2.7772201e-08
2.7772162e-08
2.7772101e-08
2.7771997e-08
2.7771797e-08
2.7771328e-08
2.7769721e-08
2.7772259e-08
2.7772245e-08
2.7772227e-08
2.7772201e-08
2.7772162e-08
2.7772101e-08
2.7771997e-08
2.7771796e-08
2.7771326e-08
2.7769686e-08
2.7772027e-08
2.7772077e-08
2.7772115e-08
2.7772145e-08
2.7772169e-08
2.7771554e-08
2.7771757e-08
2.777188e-08
2.7771968e-08
2.7772033e-08
2.7772081e-08
2.7772118e-08
2.7772147e-08
2.777217e-08
2.778486e-08
2.7769153e-08
2.7771489e-08
2.7771595e-08
2.7771777e-08
2.7771894e-08
2.7771977e-08
2.7772038e-08
2.7772085e-08
2.7772121e-08
2.7772149e-08
2.7772172e-08
2.7898588e-08
2.7739185e-08
2.7778105e-08
2.7770165e-08
2.7771466e-08
2.7771631e-08
2.7771796e-08
2.7771906e-08
2.7771985e-08
2.7772044e-08
2.7772089e-08
2.7772124e-08
2.7772151e-08
2.7772173e-08
2.7831555e-08
2.7752972e-08
2.7773922e-08
2.7770766e-08
2.7771475e-08
2.7771663e-08
2.7771814e-08
2.7771918e-08
2.7771994e-08
2.777205e-08
2.7772093e-08
2.7772127e-08
2.7772154e-08
2.7772175e-08
2.7798027e-08
2.776053e-08
2.7771936e-08
2.7771054e-08
2.7771499e-08
2.7771692e-08
2.7771832e-08
2.7771931e-08
2.7772002e-08
2.7772056e-08
2.7772098e-08
2.777213e-08
2.7772156e-08
2.7772177e-08
2.7780138e-08
2.7766473e-08
2.7771297e-08
2.7771232e-08
2.7771543e-08
2.7771725e-08
2.7771853e-08
2.7771944e-08
2.7772011e-08
2.7772063e-08
2.7772102e-08
2.7772134e-08
2.7772159e-08
2.7772179e-08
2.7771055e-08
2.7770701e-08
2.7771277e-08
2.7771506e-08
2.777169e-08
2.7771821e-08
2.7771918e-08
2.777199e-08
2.7772045e-08
2.7772088e-08
2.7772122e-08
2.7772149e-08
2.7772171e-08
2.7772189e-08
2.7771442e-08
2.7771559e-08
2.7771696e-08
2.7771801e-08
2.7771888e-08
2.7771959e-08
2.7772016e-08
2.7772062e-08
2.7772099e-08
2.7772129e-08
2.7772154e-08
2.7772174e-08
2.7772192e-08
2.7772206e-08
2.777183e-08
2.7771878e-08
2.7771928e-08
2.7771975e-08
2.7772019e-08
2.7772057e-08
2.777209e-08
2.7772119e-08
2.7772143e-08
2.7772164e-08
2.7772182e-08
2.7772197e-08
2.777221e-08
2.7772221e-08
2.7772012e-08
2.7772032e-08
2.7772055e-08
2.7772079e-08
2.7772102e-08
2.7772124e-08
2.7772144e-08
2.7772162e-08
2.7772179e-08
2.7772193e-08
2.7772206e-08
2.7772217e-08
2.7772227e-08
2.7772235e-08
2.7772108e-08
2.7772119e-08
2.7772131e-08
2.7772144e-08
2.7772157e-08
2.7772171e-08
2.7772183e-08
2.7772195e-08
2.7772206e-08
2.7772216e-08
2.7772225e-08
2.7772233e-08
2.777224e-08
2.7772247e-08
2.7772166e-08
2.7772172e-08
2.7772179e-08
2.7772187e-08
2.7772195e-08
2.7772203e-08
2.7772211e-08
2.7772219e-08
2.7772227e-08
2.7772234e-08
2.777224e-08
2.7772246e-08
2.7772252e-08
2.7772257e-08
2.7772203e-08
2.7772207e-08
2.7772211e-08
2.7772216e-08
2.7772221e-08
2.7772227e-08
2.7772232e-08
2.7772238e-08
2.7772243e-08
2.7772248e-08
2.7772253e-08
2.7772257e-08
2.7772262e-08
2.7772265e-08
2.7772229e-08
2.7772231e-08
2.7772234e-08
2.7772237e-08
2.777224e-08
2.7772244e-08
2.7772248e-08
2.7772252e-08
2.7772255e-08
2.7772259e-08
2.7772263e-08
2.7772266e-08
2.777227e-08
2.7772273e-08
2.7772247e-08
2.7772248e-08
2.777225e-08
2.7772252e-08
2.7772255e-08
2.7772257e-08
2.777226e-08
2.7772263e-08
2.7772265e-08
2.7772268e-08
2.7772271e-08
2.7772274e-08
2.7772276e-08
2.7772279e-08
2.777226e-08
2.7772261e-08
2.7772262e-08
2.7772264e-08
2.7772265e-08
2.7772267e-08
2.7772269e-08
2.7772271e-08
2.7772273e-08
2.7772275e-08
2.7772278e-08
2.777228e-08
2.7772282e-08
2.7772284e-08
2.7772321e-08
2.7772321e-08
2.7772322e-08
2.7772322e-08
2.7772322e-08
2.7772322e-08
2.7772322e-08
2.7772322e-08
2.7772322e-08
2.7772322e-08
2.7772321e-08
2.7772321e-08
2.7772321e-08
2.7772322e-08
2.7772322e-08
2.7772322e-08
2.7772322e-08
2.7772322e-08
2.7772322e-08
2.7772322e-08
2.7772322e-08
2.7772319e-08
2.7772321e-08
2.7772321e-08
2.7772321e-08
2.7772322e-08
2.7772322e-08
2.7772322e-08
2.7772322e-08
2.7772322e-08
2.7772322e-08
2.7772322e-08
2.7772322e-08
2.7772316e-08
2.7772319e-08
2.7772321e-08
2.7772321e-08
2.7772321e-08
2.7772322e-08
2.7772322e-08
2.7772322e-08
2.7772322e-08
2.7772322e-08
2.7772322e-08
2.7772322e-08
2.7772322e-08
2.7772316e-08
2.7772319e-08
2.7772321e-08
2.7772321e-08
2.7772321e-08
2.7772322e-08
2.7772322e-08
2.7772322e-08
2.7772322e-08
2.7772322e-08
2.7772322e-08
2.7772322e-08
2.7772322e-08
2.7772295e-08
2.7772316e-08
2.7772319e-08
2.7772321e-08
2.7772321e-08
2.7772321e-08
2.7772322e-08
2.7772322e-08
2.7772322e-08
2.7772322e-08
2.7772322e-08
2.7772322e-08
2.7772322e-08
2.7772322e-08
2.7772295e-08
2.7772316e-08
2.7772319e-08
2.7772321e-08
2.7772321e-08
2.7772321e-08
2.7772322e-08
2.7772322e-08
2.7772322e-08
2.7772322e-08
2.7772322e-08
2.7772322e-08
2.7772322e-08
2.7772322e-08
2.7772295e-08
2.7772316e-08
2.7772319e-08
2.7772321e-08
2.7772321e-08
2.7772321e-08
2.7772322e-08
2.7772322e-08
2.7772322e-08
2.7772322e-08
2.7772322e-08
2.7772322e-08
2.7772322e-08
2.7772322e-08
2.7772295e-08
2.7772316e-08
2.7772319e-08
2.7772321e-08
2.7772321e-08
2.7772321e-08
2.7772322e-08
2.7772322e-08
2.7772322e-08
2.7772322e-08
2.7772322e-08
2.7772322e-08
2.7772322e-08
2.7772322e-08
2.7772295e-08
2.7772316e-08
2.7772319e-08
2.7772321e-08
2.7772321e-08
2.7772321e-08
2.7772322e-08
2.7772322e-08
2.7772322e-08
2.7772322e-08
2.7772322e-08
2.7772322e-08
2.7772322e-08
2.7772322e-08
2.7772295e-08
2.7772316e-08
2.7772319e-08
2.7772321e-08
2.7772321e-08
2.7772321e-08
2.7772322e-08
2.7772322e-08
2.7772322e-08
2.7772322e-08
2.7772322e-08
2.7772322e-08
2.7772322e-08
2.7772295e-08
2.7772316e-08
2.7772319e-08
2.7772321e-08
2.7772321e-08
2.7772321e-08
2.7772322e-08
2.7772322e-08
2.7772322e-08
2.7772322e-08
2.7772322e-08
2.7772322e-08
2.7772295e-08
2.7772316e-08
2.7772319e-08
2.7772321e-08
2.7772321e-08
2.7772321e-08
2.7772322e-08
2.7772322e-08
2.7772322e-08
2.7772322e-08
2.7772322e-08
2.7772295e-08
2.7772316e-08
2.7772319e-08
2.7772321e-08
2.7772321e-08
2.7772321e-08
2.7772322e-08
2.7772322e-08
2.7772322e-08
2.7772322e-08
2.7772311e-08
2.7772318e-08
2.7772318e-08
2.7772318e-08
2.7772318e-08
2.7772318e-08
2.7772318e-08
2.7772318e-08
2.7772318e-08
2.7772318e-08
2.7772318e-08
2.7772318e-08
2.7772318e-08
2.7772318e-08
2.777232e-08
2.777232e-08
2.777232e-08
2.777232e-08
2.777232e-08
2.777232e-08
2.777232e-08
2.777232e-08
2.777232e-08
2.777232e-08
2.777232e-08
2.777232e-08
2.777232e-08
2.777232e-08
2.7772321e-08
2.7772321e-08
2.7772321e-08
2.7772321e-08
2.7772321e-08
2.7772321e-08
2.7772321e-08
2.7772321e-08
2.777232e-08
2.777232e-08
2.777232e-08
2.777232e-08
2.777232e-08
2.7772318e-08
2.7772318e-08
2.7772318e-08
2.7772318e-08
2.7772318e-08
2.7772318e-08
2.7772318e-08
2.7772318e-08
2.7772318e-08
2.7772318e-08
2.7772318e-08
2.7772318e-08
2.7772318e-08
2.7772318e-08
2.7772311e-08
2.7772311e-08
2.7772311e-08
2.7772311e-08
2.7772311e-08
2.7772311e-08
2.7772311e-08
2.7772311e-08
2.7772311e-08
2.7772311e-08
2.7772311e-08
2.7772311e-08
2.7772311e-08
2.7772311e-08
2.7772322e-08
2.7772322e-08
2.7772322e-08
2.7772322e-08
2.7772322e-08
2.7772322e-08
2.7772322e-08
2.7772322e-08
2.7772322e-08
2.7772322e-08
2.7772322e-08
2.7772322e-08
2.7772322e-08
2.7772322e-08
2.7772322e-08
2.7772322e-08
2.7772322e-08
2.7772322e-08
2.7772322e-08
2.7772322e-08
2.7772322e-08
2.7772322e-08
2.7772322e-08
2.7772322e-08
2.7772322e-08
2.7772321e-08
2.7772322e-08
2.7772322e-08
2.7772321e-08
2.7772321e-08
2.7772322e-08
2.7772321e-08
2.7772321e-08
2.7772322e-08
2.7772321e-08
2.7772321e-08
2.777232e-08
2.7772321e-08
2.7772321e-08
2.777232e-08
2.7772321e-08
2.777232e-08
2.7772304e-08
2.7772303e-08
2.7772302e-08
2.7772301e-08
2.7772299e-08
2.7772298e-08
2.7772297e-08
2.7772296e-08
2.7772316e-08
2.7772316e-08
2.7772316e-08
2.7772316e-08
2.7772316e-08
2.7772316e-08
2.7772319e-08
2.7772319e-08
2.7772319e-08
2.7772319e-08
2.7772319e-08
2.7772321e-08
2.7772321e-08
2.7772321e-08
2.7772321e-08
2.7772321e-08
2.7772321e-08
2.7772321e-08
2.7772321e-08
2.7772321e-08
2.7772322e-08
2.7772322e-08
2.7772322e-08
2.7772312e-08
2.7772312e-08
2.7772312e-08
2.7772312e-08
2.7772312e-08
2.7772312e-08
2.7772312e-08
2.7772312e-08
2.7772312e-08
2.7772312e-08
2.7772312e-08
2.7772312e-08
2.7772312e-08
2.7772312e-08
2.7772318e-08
2.7772318e-08
2.7772318e-08
2.7772312e-08
2.7772312e-08
2.7772312e-08
2.7772322e-08
2.7772322e-08
2.7772322e-08
2.7772322e-08
2.7772322e-08
2.7772322e-08
2.7772322e-08
2.7772322e-08
2.7772322e-08
2.7772322e-08
)
;

boundaryField
{
    Side
    {
        type            empty;
    }
    Inlet
    {
        type            inletOutlet;
        inletValue      uniform 3.9592226e-07;
        value           nonuniform List<scalar> 
15
(
3.9592226e-07
3.9592226e-07
3.9592226e-07
3.9592226e-07
3.9592226e-07
3.9592226e-07
3.9592226e-07
3.9592226e-07
3.9592226e-07
3.9592226e-07
2.7772322e-08
2.7772322e-08
2.7772322e-08
3.9592226e-07
3.9592226e-07
)
;
    }
    Airfoil
    {
        type            nutUSpaldingWallFunction;
        value           nonuniform List<scalar> 0();
    }
    Outlet
    {
        type            zeroGradient;
    }
    Flap
    {
        type            nutUSpaldingWallFunction;
        value           nonuniform List<scalar> 0();
    }
    procBoundary5to4
    {
        type            processor;
        value           nonuniform List<scalar> 
189
(
2.7771934e-08
2.7771914e-08
2.7771896e-08
2.7771877e-08
2.7771856e-08
2.7771834e-08
2.7771811e-08
2.7771786e-08
2.777176e-08
2.7771731e-08
2.7771693e-08
2.7771658e-08
2.7771621e-08
2.7771581e-08
2.7772293e-08
2.7772293e-08
2.7772293e-08
2.7772293e-08
2.7772294e-08
2.7772294e-08
2.777229e-08
2.777229e-08
2.777229e-08
2.7772285e-08
2.7772285e-08
2.7772285e-08
2.7772279e-08
2.777228e-08
2.777228e-08
2.7772272e-08
2.7772272e-08
2.7772262e-08
2.7772263e-08
2.7772263e-08
2.7772293e-08
2.777225e-08
2.7772251e-08
2.7772252e-08
2.7772254e-08
2.7772254e-08
2.7772254e-08
2.7772238e-08
2.7772239e-08
2.7772242e-08
2.7772242e-08
2.7772242e-08
2.7772223e-08
2.7772225e-08
2.7772227e-08
2.7772229e-08
2.7772232e-08
2.7772232e-08
2.7772018e-08
2.7772114e-08
2.7772114e-08
2.7772145e-08
2.7772145e-08
2.7772174e-08
2.7772211e-08
2.7772211e-08
2.7769766e-08
2.7769765e-08
2.7769781e-08
2.7769786e-08
2.7769786e-08
2.7768256e-08
2.7770989e-08
2.7770975e-08
2.7770949e-08
2.7770939e-08
2.7770944e-08
2.7770944e-08
2.7771552e-08
2.7771533e-08
2.7771522e-08
2.7771512e-08
2.7771512e-08
2.7768215e-08
2.7767066e-08
2.776451e-08
2.7758279e-08
2.7744933e-08
2.7744933e-08
2.7646977e-08
2.7571854e-08
2.7509566e-08
2.7509566e-08
2.7306204e-08
2.7427062e-08
2.7597825e-08
2.7597825e-08
2.7814863e-08
2.7808319e-08
2.7782705e-08
2.7782705e-08
2.7644115e-08
2.7653661e-08
2.7634592e-08
2.7723996e-08
2.7723996e-08
2.7738884e-08
2.7733293e-08
2.773493e-08
2.7721382e-08
2.7699926e-08
2.7651803e-08
2.7577161e-08
2.7473943e-08
2.7351605e-08
2.7232628e-08
2.7232628e-08
2.7772167e-08
2.7772019e-08
2.7772071e-08
2.777211e-08
2.7772141e-08
2.7772166e-08
2.7772166e-08
2.7771504e-08
2.7771734e-08
2.7771864e-08
2.7771957e-08
2.7771957e-08
2.7797357e-08
2.7767477e-08
2.777157e-08
2.777157e-08
2.8069105e-08
2.7707804e-08
2.7707804e-08
2.7772321e-08
2.7772321e-08
2.7772321e-08
2.7772321e-08
2.7772322e-08
2.7772319e-08
2.7772319e-08
2.7772316e-08
2.7772316e-08
2.7772295e-08
2.7772294e-08
2.7772294e-08
2.777231e-08
2.777231e-08
2.777231e-08
2.777231e-08
2.777231e-08
2.777231e-08
2.777231e-08
2.7772311e-08
2.777231e-08
2.7772311e-08
2.7772311e-08
2.777231e-08
2.777231e-08
2.7772318e-08
2.7772318e-08
2.7772322e-08
2.7772322e-08
2.7772322e-08
2.7772322e-08
2.7772322e-08
2.7772322e-08
2.7772322e-08
2.7772322e-08
2.7772322e-08
2.7772322e-08
2.7772322e-08
2.7772321e-08
2.7772321e-08
2.7772321e-08
2.7772321e-08
2.7772321e-08
2.7772321e-08
2.777232e-08
2.777232e-08
2.777232e-08
2.7772318e-08
2.7772318e-08
2.7772318e-08
2.7772322e-08
2.7772322e-08
2.7772322e-08
2.7772322e-08
2.7772322e-08
2.7772322e-08
2.7772322e-08
2.7772322e-08
2.7772322e-08
)
;
    }
    procBoundary5to6
    {
        type            processor;
        value           nonuniform List<scalar> 
188
(
2.7772277e-08
2.7772277e-08
2.7772277e-08
2.7772277e-08
2.7772276e-08
2.7772276e-08
2.7772276e-08
2.7772276e-08
2.7772276e-08
2.7772275e-08
2.7772275e-08
2.7772275e-08
2.7772275e-08
2.7772275e-08
2.7772279e-08
2.7772282e-08
2.7772284e-08
2.7772287e-08
2.7772286e-08
2.7772286e-08
2.7772289e-08
2.7772292e-08
2.7772294e-08
2.7772295e-08
2.7772295e-08
2.7772297e-08
2.7772299e-08
2.77723e-08
2.77723e-08
2.7772302e-08
2.7772303e-08
2.7772313e-08
2.7772313e-08
2.7772313e-08
2.7772303e-08
2.7772313e-08
2.7772267e-08
2.7772267e-08
2.7772268e-08
2.7772268e-08
2.7772275e-08
2.7772275e-08
2.7772275e-08
2.7772275e-08
2.7772275e-08
2.7772275e-08
2.7772275e-08
2.7772276e-08
2.7772276e-08
2.7772267e-08
2.7772276e-08
2.7772269e-08
2.7772269e-08
2.7772269e-08
2.7772269e-08
2.7772269e-08
2.7772269e-08
2.7772269e-08
2.7772269e-08
2.7772269e-08
2.7772269e-08
2.7772269e-08
2.7772269e-08
2.7772269e-08
2.7772269e-08
2.777227e-08
2.777227e-08
2.777227e-08
2.777227e-08
2.777227e-08
2.777227e-08
2.777227e-08
2.777227e-08
2.7772269e-08
2.7772269e-08
2.7772269e-08
2.7772269e-08
2.7772269e-08
2.7772269e-08
2.7772305e-08
2.777227e-08
2.7772271e-08
2.7772272e-08
2.7772273e-08
2.7772274e-08
2.7772275e-08
2.7772277e-08
2.7772278e-08
2.777228e-08
2.7772282e-08
2.7772283e-08
2.7772285e-08
2.7772286e-08
2.7772288e-08
2.7772306e-08
2.7772322e-08
2.7772322e-08
2.7772322e-08
2.7772322e-08
2.7772322e-08
2.7772322e-08
2.7772322e-08
2.7772322e-08
2.7772322e-08
2.7772321e-08
2.7772321e-08
2.7772321e-08
2.7772321e-08
2.7772321e-08
2.7772321e-08
2.7772321e-08
2.7772321e-08
2.7772321e-08
2.7772321e-08
2.7772321e-08
2.7772321e-08
2.7772321e-08
2.7772321e-08
2.7772321e-08
2.7772321e-08
2.7772321e-08
2.7772321e-08
2.7772321e-08
2.7772321e-08
2.777232e-08
2.777232e-08
2.777232e-08
2.777232e-08
2.777232e-08
2.777232e-08
2.777232e-08
2.777232e-08
2.777232e-08
2.777232e-08
2.7772322e-08
2.7772322e-08
2.7772322e-08
2.7772322e-08
2.7772322e-08
2.7772322e-08
2.7772322e-08
2.7772322e-08
2.7772322e-08
2.7772322e-08
2.7772322e-08
2.7772322e-08
2.7772322e-08
2.7772322e-08
2.7772322e-08
2.7772322e-08
2.7772321e-08
2.7772321e-08
2.7772305e-08
2.7772317e-08
2.7772317e-08
2.7772317e-08
2.777232e-08
2.777232e-08
2.7772321e-08
2.7772321e-08
2.7772321e-08
2.7772321e-08
2.7772321e-08
2.7772321e-08
2.7772322e-08
2.7772322e-08
2.7772322e-08
2.7772322e-08
2.7772322e-08
2.7772318e-08
2.7772318e-08
2.7772318e-08
2.7772318e-08
2.7772318e-08
2.7772318e-08
2.7772318e-08
2.7772318e-08
2.7772318e-08
2.7772318e-08
2.7772318e-08
2.777232e-08
2.777232e-08
2.7772318e-08
2.777232e-08
2.7772318e-08
2.7772318e-08
2.7772318e-08
2.7772313e-08
)
;
    }
}


// ************************************************************************* //
