/*--------------------------------*- C++ -*----------------------------------*\
| =========                 |                                                 |
| \\      /  F ield         | OpenFOAM: The Open Source CFD Toolbox           |
|  \\    /   O peration     | Version:  2206                                  |
|   \\  /    A nd           | Website:  www.openfoam.com                      |
|    \\/     M anipulation  |                                                 |
\*---------------------------------------------------------------------------*/
FoamFile
{
    version     2.0;
    format      ascii;
    arch        "LSB;label=32;scalar=64";
    class       volScalarField;
    location    "0.01";
    object      nuTilda;
}
// * * * * * * * * * * * * * * * * * * * * * * * * * * * * * * * * * * * * * //

dimensions      [0 2 -1 0 0 0 0];

internalField   nonuniform List<scalar> 
1396
(
3.9592113e-07
3.9592109e-07
3.9592105e-07
3.95921e-07
3.9592096e-07
3.9592091e-07
3.9592086e-07
3.959208e-07
3.9592073e-07
3.9592067e-07
3.959206e-07
3.9592053e-07
3.9592045e-07
3.9592037e-07
3.9592138e-07
3.9592135e-07
3.9592133e-07
3.959213e-07
3.9592127e-07
3.9592124e-07
3.9592121e-07
3.9592116e-07
3.9592113e-07
3.9592109e-07
3.9592105e-07
3.9592101e-07
3.9592096e-07
3.9592092e-07
3.9592157e-07
3.9592156e-07
3.9592154e-07
3.9592152e-07
3.959215e-07
3.9592148e-07
3.9592146e-07
3.9592144e-07
3.9592142e-07
3.959214e-07
3.9592137e-07
3.9592135e-07
3.9592133e-07
3.9592131e-07
3.9592172e-07
3.9592171e-07
3.959217e-07
3.9592169e-07
3.9592168e-07
3.9592167e-07
3.9592166e-07
3.9592165e-07
3.9592164e-07
3.9592163e-07
3.9592162e-07
3.9592161e-07
3.959216e-07
3.9592159e-07
3.9592184e-07
3.9592184e-07
3.9592183e-07
3.9592183e-07
3.9592182e-07
3.9592182e-07
3.9592181e-07
3.9592181e-07
3.959218e-07
3.9592179e-07
3.9592179e-07
3.9592178e-07
3.9592178e-07
3.9592177e-07
3.9592194e-07
3.9592193e-07
3.9592193e-07
3.9592193e-07
3.9592192e-07
3.9592192e-07
3.9592192e-07
3.9592191e-07
3.9592191e-07
3.9592191e-07
3.959219e-07
3.959219e-07
3.959219e-07
3.959219e-07
3.95922e-07
3.95922e-07
3.95922e-07
3.95922e-07
3.95922e-07
3.9592199e-07
3.9592199e-07
3.9592199e-07
3.9592199e-07
3.9592199e-07
3.9592198e-07
3.9592198e-07
3.9592198e-07
3.9592198e-07
3.9592205e-07
3.9592205e-07
3.9592205e-07
3.9592205e-07
3.9592205e-07
3.9592205e-07
3.9592205e-07
3.9592204e-07
3.9592204e-07
3.9592204e-07
3.9592204e-07
3.9592204e-07
3.9592204e-07
3.9592204e-07
3.9592215e-07
3.9592216e-07
3.9592216e-07
3.9592216e-07
3.9592216e-07
3.9592216e-07
3.9592216e-07
3.9592216e-07
3.9592217e-07
3.9592214e-07
3.9592214e-07
3.9592214e-07
3.9592215e-07
3.9592215e-07
3.9592215e-07
3.9592215e-07
3.9592212e-07
3.9592213e-07
3.9592213e-07
3.9592213e-07
3.9592213e-07
3.959221e-07
3.9592211e-07
3.9592211e-07
3.9592208e-07
3.9592208e-07
3.9592204e-07
3.9592208e-07
3.9592211e-07
3.9592213e-07
3.9592215e-07
3.9592217e-07
3.9592205e-07
3.9592208e-07
3.9592211e-07
3.9592213e-07
3.9592215e-07
3.9592217e-07
3.9592205e-07
3.9592208e-07
3.9592211e-07
3.9592214e-07
3.9592215e-07
3.9592217e-07
3.9592205e-07
3.9592209e-07
3.9592212e-07
3.9592214e-07
3.9592215e-07
3.9592217e-07
3.9592205e-07
3.9592209e-07
3.9592212e-07
3.9592214e-07
3.9592216e-07
3.9592217e-07
3.9592201e-07
3.9592206e-07
3.9592209e-07
3.9592212e-07
3.9592214e-07
3.9592216e-07
3.9592217e-07
3.9592201e-07
3.9592206e-07
3.9592209e-07
3.9592212e-07
3.9592214e-07
3.9592216e-07
3.9592217e-07
3.9592202e-07
3.9592206e-07
3.959221e-07
3.9592212e-07
3.9592214e-07
3.9592216e-07
3.9592217e-07
3.9592202e-07
3.9592206e-07
3.959221e-07
3.9592212e-07
3.9592214e-07
3.9592216e-07
3.9592217e-07
3.9592197e-07
3.9592202e-07
3.9592207e-07
3.959221e-07
3.9592212e-07
3.9592214e-07
3.9592216e-07
3.9592217e-07
3.9592197e-07
3.9592203e-07
3.9592207e-07
3.959221e-07
3.9592212e-07
3.9592214e-07
3.9592216e-07
3.9592217e-07
3.9592198e-07
3.9592203e-07
3.9592207e-07
3.959221e-07
3.9592213e-07
3.9592215e-07
3.9592216e-07
3.9592217e-07
3.9592198e-07
3.9592204e-07
3.9592207e-07
3.959221e-07
3.9592213e-07
3.9592215e-07
3.9592216e-07
3.9592217e-07
3.9592199e-07
3.9592204e-07
3.9592208e-07
3.9592211e-07
3.9592213e-07
3.9592215e-07
3.9592216e-07
3.9592217e-07
3.9592134e-07
3.9592153e-07
3.9592167e-07
3.9592179e-07
3.9592188e-07
3.9592196e-07
3.9592202e-07
3.9592206e-07
3.9592161e-07
3.9592172e-07
3.959218e-07
3.9592188e-07
3.9592195e-07
3.95922e-07
3.9592204e-07
3.9592208e-07
3.959217e-07
3.9592177e-07
3.9592184e-07
3.959219e-07
3.9592195e-07
3.9592199e-07
3.9592203e-07
3.9592207e-07
3.959221e-07
3.9592177e-07
3.9592183e-07
3.9592188e-07
3.9592193e-07
3.9592197e-07
3.95922e-07
3.9592203e-07
3.9592206e-07
3.9592209e-07
3.9592211e-07
3.9592188e-07
3.9592192e-07
3.9592196e-07
3.9592199e-07
3.9592201e-07
3.9592204e-07
3.9592206e-07
3.9592209e-07
3.9592211e-07
3.9592194e-07
3.9592196e-07
3.9592199e-07
3.9592201e-07
3.9592203e-07
3.9592205e-07
3.9592207e-07
3.9592209e-07
3.9592211e-07
3.9592212e-07
3.95922e-07
3.9592202e-07
3.9592204e-07
3.9592206e-07
3.9592207e-07
3.9592208e-07
3.959221e-07
3.9592211e-07
3.9592212e-07
3.9592213e-07
3.9592205e-07
3.9592206e-07
3.9592207e-07
3.9592209e-07
3.959221e-07
3.9592211e-07
3.9592212e-07
3.9592213e-07
3.9592214e-07
3.9592215e-07
3.9592208e-07
3.9592209e-07
3.959221e-07
3.9592211e-07
3.9592212e-07
3.9592213e-07
3.9592213e-07
3.9592214e-07
3.9592215e-07
3.9592211e-07
3.9592212e-07
3.9592212e-07
3.9592213e-07
3.9592214e-07
3.9592214e-07
3.9592215e-07
3.9592215e-07
3.9592216e-07
3.9592213e-07
3.9592214e-07
3.9592214e-07
3.9592215e-07
3.9592215e-07
3.9592216e-07
3.9592216e-07
3.9592216e-07
3.9592217e-07
3.9592215e-07
3.9592215e-07
3.9592216e-07
3.9592216e-07
3.9592216e-07
3.9592217e-07
3.9592217e-07
3.9592217e-07
3.9592216e-07
3.9592217e-07
3.9592217e-07
3.9592217e-07
3.9592217e-07
3.9592218e-07
3.9592218e-07
3.9592218e-07
3.9592217e-07
3.9592218e-07
3.9592218e-07
3.9592218e-07
3.9592218e-07
3.9592218e-07
3.9592219e-07
3.95913e-07
3.9591702e-07
3.9591704e-07
3.9591721e-07
3.9591748e-07
3.9591783e-07
3.9591917e-07
3.9591917e-07
3.9591911e-07
3.959191e-07
3.9591915e-07
3.9591922e-07
3.9591935e-07
3.9591952e-07
3.9591971e-07
3.9591991e-07
3.959203e-07
3.9592028e-07
3.9592025e-07
3.9592024e-07
3.9592022e-07
3.9592023e-07
3.9592026e-07
3.9592031e-07
3.9592038e-07
3.9592046e-07
3.9592055e-07
3.9592065e-07
3.9592075e-07
3.9592085e-07
3.9592089e-07
3.9592088e-07
3.9592088e-07
3.9592089e-07
3.9592091e-07
3.9592094e-07
3.9592098e-07
3.9592102e-07
3.9592107e-07
3.9592112e-07
3.9592117e-07
3.9592122e-07
3.9592128e-07
3.9592133e-07
3.959213e-07
3.9592131e-07
3.9592132e-07
3.9592134e-07
3.9592136e-07
3.9592138e-07
3.959214e-07
3.9592143e-07
3.9592146e-07
3.9592148e-07
3.9592151e-07
3.9592154e-07
3.9592157e-07
3.959216e-07
3.9592158e-07
3.9592159e-07
3.959216e-07
3.9592161e-07
3.9592163e-07
3.9592164e-07
3.9592166e-07
3.9592167e-07
3.9592169e-07
3.959217e-07
3.9592172e-07
3.9592174e-07
3.9592175e-07
3.9592177e-07
3.9592177e-07
3.9592178e-07
3.9592178e-07
3.9592179e-07
3.959218e-07
3.9592181e-07
3.9592182e-07
3.9592183e-07
3.9592183e-07
3.9592184e-07
3.9592185e-07
3.9592186e-07
3.9592187e-07
3.9592188e-07
3.9592189e-07
3.959219e-07
3.959219e-07
3.9592191e-07
3.9592191e-07
3.9592192e-07
3.9592192e-07
3.9592193e-07
3.9592193e-07
3.9592194e-07
3.9592194e-07
3.9592195e-07
3.9592195e-07
3.9592196e-07
3.9592198e-07
3.9592198e-07
3.9592198e-07
3.9592199e-07
3.9592199e-07
3.9592199e-07
3.9592199e-07
3.95922e-07
3.95922e-07
3.95922e-07
3.9592201e-07
3.9592201e-07
3.9592201e-07
3.9592202e-07
3.9592204e-07
3.9592204e-07
3.9592204e-07
3.9592204e-07
3.9592204e-07
3.9592204e-07
3.9592205e-07
3.9592205e-07
3.9592205e-07
3.9592205e-07
3.9557202e-07
3.9529113e-07
3.9496527e-07
3.946977e-07
3.9350972e-07
3.9466939e-07
3.9354718e-07
3.9488809e-07
3.939918e-07
3.9524526e-07
3.9461508e-07
3.9395827e-07
3.9557425e-07
3.9520402e-07
3.9479836e-07
3.9579265e-07
3.9562754e-07
3.9541041e-07
3.9552878e-07
3.9567107e-07
3.9578643e-07
3.9586233e-07
3.9565129e-07
3.9573234e-07
3.9582018e-07
3.9587659e-07
3.9571911e-07
3.9580325e-07
3.9586412e-07
3.9589428e-07
3.9588357e-07
3.9590392e-07
3.9590877e-07
3.9595696e-07
3.9594196e-07
3.9592301e-07
3.9601336e-07
3.9597469e-07
3.9593523e-07
3.9608407e-07
3.9600879e-07
3.9594696e-07
3.9613732e-07
3.9603744e-07
3.9595734e-07
3.9619734e-07
3.9606854e-07
3.959681e-07
3.9626049e-07
3.9609696e-07
3.9597789e-07
3.9632979e-07
3.9612547e-07
3.9598752e-07
3.9638093e-07
3.961496e-07
3.9599688e-07
3.964028e-07
3.9616777e-07
3.9600454e-07
3.9637716e-07
3.96168e-07
3.9600665e-07
3.9591308e-07
3.9591232e-07
3.9591124e-07
3.9590918e-07
3.9590469e-07
3.9589484e-07
3.9587897e-07
3.9585837e-07
3.9584006e-07
3.9583411e-07
3.9584566e-07
3.9586936e-07
3.9589252e-07
3.9590693e-07
3.9591802e-07
3.9591792e-07
3.9591784e-07
3.9591775e-07
3.9591764e-07
3.9591743e-07
3.9591711e-07
3.9591668e-07
3.9591629e-07
3.9591617e-07
3.9591647e-07
3.9591712e-07
3.9591783e-07
3.9591828e-07
3.9592002e-07
3.9592e-07
3.9592e-07
3.9592e-07
3.9592e-07
3.9592e-07
3.9592001e-07
3.9592002e-07
3.9592003e-07
3.9592006e-07
3.9592009e-07
3.9592014e-07
3.9592018e-07
3.9592023e-07
3.9592091e-07
3.959209e-07
3.959209e-07
3.9592091e-07
3.9592091e-07
3.9592092e-07
3.9592093e-07
3.9592094e-07
3.9592095e-07
3.9592096e-07
3.9592097e-07
3.9592099e-07
3.95921e-07
3.9592102e-07
3.9592136e-07
3.9592136e-07
3.9592136e-07
3.9592136e-07
3.9592137e-07
3.9592137e-07
3.9592137e-07
3.9592138e-07
3.9592138e-07
3.9592139e-07
3.959214e-07
3.959214e-07
3.9592141e-07
3.9592142e-07
3.9592162e-07
3.9592162e-07
3.9592162e-07
3.9592162e-07
3.9592162e-07
3.9592163e-07
3.9592163e-07
3.9592163e-07
3.9592163e-07
3.9592164e-07
3.9592164e-07
3.9592164e-07
3.9592165e-07
3.9592165e-07
3.9592178e-07
3.9592178e-07
3.9592178e-07
3.9592178e-07
3.9592178e-07
3.9592178e-07
3.9592179e-07
3.9592179e-07
3.9592179e-07
3.9592179e-07
3.9592179e-07
3.959218e-07
3.959218e-07
3.959218e-07
3.9592189e-07
3.9592189e-07
3.9592189e-07
3.9592189e-07
3.9592189e-07
3.9592189e-07
3.9592189e-07
3.9592189e-07
3.9592189e-07
3.9592189e-07
3.959219e-07
3.959219e-07
3.959219e-07
3.959219e-07
3.9592196e-07
3.9592196e-07
3.9592196e-07
3.9592196e-07
3.9592196e-07
3.9592197e-07
3.9592197e-07
3.9592197e-07
3.9592197e-07
3.9592197e-07
3.9592197e-07
3.9592197e-07
3.9592197e-07
3.9592197e-07
3.9592202e-07
3.9592202e-07
3.9592202e-07
3.9592202e-07
3.9592202e-07
3.9592202e-07
3.9592202e-07
3.9592202e-07
3.9592202e-07
3.9592202e-07
3.9592202e-07
3.9592202e-07
3.9592202e-07
3.9592202e-07
3.9592202e-07
3.9592197e-07
3.9592191e-07
3.9592181e-07
3.9592167e-07
3.9592144e-07
3.9592106e-07
3.9592034e-07
3.9591876e-07
3.9591808e-07
3.9592202e-07
3.9592197e-07
3.959219e-07
3.9592181e-07
3.9592166e-07
3.9592144e-07
3.9592106e-07
3.9592034e-07
3.9591874e-07
3.9591779e-07
3.9592202e-07
3.9592197e-07
3.959219e-07
3.9592181e-07
3.9592166e-07
3.9592144e-07
3.9592106e-07
3.9592033e-07
3.9591872e-07
3.9591746e-07
3.9592202e-07
3.9592197e-07
3.959219e-07
3.9592181e-07
3.9592166e-07
3.9592144e-07
3.9592106e-07
3.9592033e-07
3.959187e-07
3.9591706e-07
3.9592202e-07
3.9592197e-07
3.959219e-07
3.9592181e-07
3.9592166e-07
3.9592144e-07
3.9592105e-07
3.9592032e-07
3.9591868e-07
3.959166e-07
3.9592202e-07
3.9592197e-07
3.959219e-07
3.9592181e-07
3.9592166e-07
3.9592144e-07
3.9592105e-07
3.9592032e-07
3.9591866e-07
3.9591613e-07
3.9592202e-07
3.9592197e-07
3.959219e-07
3.9592181e-07
3.9592166e-07
3.9592143e-07
3.9592105e-07
3.9592031e-07
3.9591863e-07
3.959156e-07
3.9592202e-07
3.9592197e-07
3.959219e-07
3.959218e-07
3.9592166e-07
3.9592143e-07
3.9592105e-07
3.9592031e-07
3.9591861e-07
3.9591505e-07
3.9592202e-07
3.9592197e-07
3.959219e-07
3.959218e-07
3.9592166e-07
3.9592143e-07
3.9592105e-07
3.959203e-07
3.9591859e-07
3.9591445e-07
3.9592202e-07
3.9592197e-07
3.959219e-07
3.959218e-07
3.9592166e-07
3.9592143e-07
3.9592104e-07
3.959203e-07
3.9591855e-07
3.9591386e-07
3.9592202e-07
3.9592197e-07
3.959219e-07
3.959218e-07
3.9592166e-07
3.9592143e-07
3.9592104e-07
3.9592029e-07
3.9591853e-07
3.9591322e-07
3.9592202e-07
3.9592197e-07
3.959219e-07
3.959218e-07
3.9592166e-07
3.9592143e-07
3.9592104e-07
3.9592029e-07
3.9591852e-07
3.9591251e-07
3.9592202e-07
3.9592197e-07
3.959219e-07
3.959218e-07
3.9592166e-07
3.9592143e-07
3.9592104e-07
3.9592028e-07
3.9591849e-07
3.9591176e-07
3.9592202e-07
3.9592197e-07
3.959219e-07
3.959218e-07
3.9592166e-07
3.9592143e-07
3.9592104e-07
3.9592028e-07
3.9591848e-07
3.9591121e-07
3.9592115e-07
3.9592134e-07
3.9592148e-07
3.9592159e-07
3.9592168e-07
3.9591939e-07
3.9592013e-07
3.959206e-07
3.9592093e-07
3.9592117e-07
3.9592135e-07
3.9592149e-07
3.959216e-07
3.9592169e-07
3.9598337e-07
3.9591084e-07
3.959191e-07
3.9591953e-07
3.9592021e-07
3.9592065e-07
3.9592096e-07
3.9592119e-07
3.9592137e-07
3.959215e-07
3.9592161e-07
3.9592169e-07
3.9695628e-07
3.9568604e-07
3.9595682e-07
3.9591343e-07
3.9591907e-07
3.9591966e-07
3.9592028e-07
3.9592069e-07
3.9592099e-07
3.9592121e-07
3.9592138e-07
3.9592151e-07
3.9592162e-07
3.959217e-07
3.9648562e-07
3.9576098e-07
3.9593763e-07
3.9591567e-07
3.9591911e-07
3.9591978e-07
3.9592035e-07
3.9592074e-07
3.9592102e-07
3.9592124e-07
3.959214e-07
3.9592153e-07
3.9592163e-07
3.9592171e-07
3.9617439e-07
3.958378e-07
3.9592651e-07
3.9591705e-07
3.9591919e-07
3.9591989e-07
3.9592042e-07
3.9592079e-07
3.9592106e-07
3.9592126e-07
3.9592142e-07
3.9592154e-07
3.9592164e-07
3.9592172e-07
3.9600401e-07
3.9588745e-07
3.9592065e-07
3.9591794e-07
3.9591934e-07
3.9592001e-07
3.9592049e-07
3.9592084e-07
3.9592109e-07
3.9592128e-07
3.9592143e-07
3.9592155e-07
3.9592165e-07
3.9592172e-07
3.9591884e-07
3.9591582e-07
3.9591839e-07
3.9591918e-07
3.9591988e-07
3.9592038e-07
3.9592074e-07
3.9592101e-07
3.9592122e-07
3.9592138e-07
3.9592151e-07
3.9592161e-07
3.9592169e-07
3.9592176e-07
3.9591896e-07
3.9591945e-07
3.9591989e-07
3.959203e-07
3.9592063e-07
3.9592089e-07
3.9592111e-07
3.9592128e-07
3.9592142e-07
3.9592153e-07
3.9592163e-07
3.959217e-07
3.9592177e-07
3.9592182e-07
3.9592041e-07
3.9592059e-07
3.9592078e-07
3.9592095e-07
3.9592112e-07
3.9592126e-07
3.9592139e-07
3.959215e-07
3.9592159e-07
3.9592167e-07
3.9592173e-07
3.9592179e-07
3.9592184e-07
3.9592188e-07
3.9592109e-07
3.9592117e-07
3.9592126e-07
3.9592135e-07
3.9592143e-07
3.9592152e-07
3.9592159e-07
3.9592166e-07
3.9592172e-07
3.9592177e-07
3.9592182e-07
3.9592186e-07
3.959219e-07
3.9592193e-07
3.9592146e-07
3.959215e-07
3.9592154e-07
3.9592159e-07
3.9592164e-07
3.9592169e-07
3.9592174e-07
3.9592178e-07
3.9592182e-07
3.9592186e-07
3.9592189e-07
3.9592192e-07
3.9592195e-07
3.9592198e-07
3.9592167e-07
3.959217e-07
3.9592172e-07
3.9592175e-07
3.9592178e-07
3.9592181e-07
3.9592184e-07
3.9592187e-07
3.959219e-07
3.9592193e-07
3.9592195e-07
3.9592198e-07
3.95922e-07
3.9592202e-07
3.9592181e-07
3.9592183e-07
3.9592184e-07
3.9592186e-07
3.9592188e-07
3.959219e-07
3.9592192e-07
3.9592194e-07
3.9592196e-07
3.9592198e-07
3.95922e-07
3.9592202e-07
3.9592203e-07
3.9592205e-07
3.9592191e-07
3.9592192e-07
3.9592193e-07
3.9592194e-07
3.9592195e-07
3.9592197e-07
3.9592198e-07
3.9592199e-07
3.9592201e-07
3.9592202e-07
3.9592204e-07
3.9592205e-07
3.9592206e-07
3.9592207e-07
3.9592198e-07
3.9592198e-07
3.9592199e-07
3.95922e-07
3.9592201e-07
3.9592202e-07
3.9592203e-07
3.9592204e-07
3.9592205e-07
3.9592206e-07
3.9592207e-07
3.9592208e-07
3.9592209e-07
3.959221e-07
3.9592203e-07
3.9592203e-07
3.9592203e-07
3.9592204e-07
3.9592205e-07
3.9592205e-07
3.9592206e-07
3.9592207e-07
3.9592208e-07
3.9592208e-07
3.9592209e-07
3.959221e-07
3.9592211e-07
3.9592212e-07
3.9592226e-07
3.9592226e-07
3.9592226e-07
3.9592226e-07
3.9592226e-07
3.9592226e-07
3.9592226e-07
3.9592226e-07
3.9592226e-07
3.9592226e-07
3.9592225e-07
3.9592226e-07
3.9592226e-07
3.9592226e-07
3.9592226e-07
3.9592226e-07
3.9592226e-07
3.9592226e-07
3.9592226e-07
3.9592226e-07
3.9592226e-07
3.9592225e-07
3.9592225e-07
3.9592226e-07
3.9592226e-07
3.9592226e-07
3.9592226e-07
3.9592226e-07
3.9592226e-07
3.9592226e-07
3.9592226e-07
3.9592226e-07
3.9592226e-07
3.9592224e-07
3.9592225e-07
3.9592225e-07
3.9592226e-07
3.9592226e-07
3.9592226e-07
3.9592226e-07
3.9592226e-07
3.9592226e-07
3.9592226e-07
3.9592226e-07
3.9592226e-07
3.9592226e-07
3.9592224e-07
3.9592225e-07
3.9592225e-07
3.9592226e-07
3.9592226e-07
3.9592226e-07
3.9592226e-07
3.9592226e-07
3.9592226e-07
3.9592226e-07
3.9592226e-07
3.9592226e-07
3.9592226e-07
3.9592216e-07
3.9592224e-07
3.9592225e-07
3.9592225e-07
3.9592226e-07
3.9592226e-07
3.9592226e-07
3.9592226e-07
3.9592226e-07
3.9592226e-07
3.9592226e-07
3.9592226e-07
3.9592226e-07
3.9592226e-07
3.9592216e-07
3.9592224e-07
3.9592225e-07
3.9592225e-07
3.9592226e-07
3.9592226e-07
3.9592226e-07
3.9592226e-07
3.9592226e-07
3.9592226e-07
3.9592226e-07
3.9592226e-07
3.9592226e-07
3.9592226e-07
3.9592216e-07
3.9592224e-07
3.9592225e-07
3.9592225e-07
3.9592226e-07
3.9592226e-07
3.9592226e-07
3.9592226e-07
3.9592226e-07
3.9592226e-07
3.9592226e-07
3.9592226e-07
3.9592226e-07
3.9592226e-07
3.9592216e-07
3.9592224e-07
3.9592225e-07
3.9592225e-07
3.9592226e-07
3.9592226e-07
3.9592226e-07
3.9592226e-07
3.9592226e-07
3.9592226e-07
3.9592226e-07
3.9592226e-07
3.9592226e-07
3.9592226e-07
3.9592216e-07
3.9592224e-07
3.9592225e-07
3.9592225e-07
3.9592226e-07
3.9592226e-07
3.9592226e-07
3.9592226e-07
3.9592226e-07
3.9592226e-07
3.9592226e-07
3.9592226e-07
3.9592226e-07
3.9592226e-07
3.9592216e-07
3.9592224e-07
3.9592225e-07
3.9592225e-07
3.9592226e-07
3.9592226e-07
3.9592226e-07
3.9592226e-07
3.9592226e-07
3.9592226e-07
3.9592226e-07
3.9592226e-07
3.9592226e-07
3.9592216e-07
3.9592224e-07
3.9592225e-07
3.9592225e-07
3.9592226e-07
3.9592226e-07
3.9592226e-07
3.9592226e-07
3.9592226e-07
3.9592226e-07
3.9592226e-07
3.9592226e-07
3.9592216e-07
3.9592224e-07
3.9592225e-07
3.9592225e-07
3.9592226e-07
3.9592226e-07
3.9592226e-07
3.9592226e-07
3.9592226e-07
3.9592226e-07
3.9592226e-07
3.9592216e-07
3.9592224e-07
3.9592225e-07
3.9592225e-07
3.9592226e-07
3.9592226e-07
3.9592226e-07
3.9592226e-07
3.9592226e-07
3.9592226e-07
3.9592222e-07
3.9592224e-07
3.9592224e-07
3.9592224e-07
3.9592224e-07
3.9592224e-07
3.9592224e-07
3.9592224e-07
3.9592224e-07
3.9592224e-07
3.9592224e-07
3.9592224e-07
3.9592225e-07
3.9592225e-07
3.9592225e-07
3.9592225e-07
3.9592225e-07
3.9592225e-07
3.9592225e-07
3.9592225e-07
3.9592225e-07
3.9592225e-07
3.9592225e-07
3.9592225e-07
3.9592225e-07
3.9592225e-07
3.9592225e-07
3.9592225e-07
3.9592226e-07
3.9592226e-07
3.9592226e-07
3.9592226e-07
3.9592226e-07
3.9592226e-07
3.9592226e-07
3.9592226e-07
3.9592225e-07
3.9592225e-07
3.9592225e-07
3.9592225e-07
3.9592225e-07
3.9592225e-07
3.9592225e-07
3.9592225e-07
3.9592225e-07
3.9592225e-07
3.9592225e-07
3.9592225e-07
3.9592225e-07
3.9592225e-07
3.9592225e-07
3.9592225e-07
3.9592225e-07
3.9592225e-07
3.9592225e-07
3.9592222e-07
3.9592222e-07
3.9592222e-07
3.9592222e-07
3.9592222e-07
3.9592222e-07
3.9592222e-07
3.9592222e-07
3.9592222e-07
3.9592222e-07
3.9592222e-07
3.9592222e-07
3.9592222e-07
3.9592222e-07
3.9592226e-07
3.9592226e-07
3.9592226e-07
3.9592226e-07
3.9592226e-07
3.9592226e-07
3.9592226e-07
3.9592226e-07
3.9592226e-07
3.9592226e-07
3.9592226e-07
3.9592226e-07
3.9592226e-07
3.9592226e-07
3.9592226e-07
3.9592226e-07
3.9592226e-07
3.9592226e-07
3.9592226e-07
3.9592226e-07
3.9592226e-07
3.9592226e-07
3.9592226e-07
3.9592226e-07
3.9592226e-07
3.9592226e-07
3.9592226e-07
3.9592226e-07
3.9592226e-07
3.9592226e-07
3.9592226e-07
3.9592226e-07
3.9592226e-07
3.9592226e-07
3.9592226e-07
3.9592226e-07
3.9592225e-07
3.9592226e-07
3.9592226e-07
3.9592225e-07
3.9592226e-07
3.9592225e-07
3.9592219e-07
3.9592219e-07
3.9592218e-07
3.9592218e-07
3.9592217e-07
3.9592217e-07
3.9592216e-07
3.9592216e-07
3.9592224e-07
3.9592224e-07
3.9592224e-07
3.9592224e-07
3.9592224e-07
3.9592224e-07
3.9592225e-07
3.9592225e-07
3.9592225e-07
3.9592225e-07
3.9592225e-07
3.9592225e-07
3.9592225e-07
3.9592225e-07
3.9592225e-07
3.9592226e-07
3.9592226e-07
3.9592226e-07
3.9592226e-07
3.9592226e-07
3.9592226e-07
3.9592226e-07
3.9592226e-07
3.9592222e-07
3.9592222e-07
3.9592222e-07
3.9592222e-07
3.9592222e-07
3.9592222e-07
3.9592222e-07
3.9592222e-07
3.9592222e-07
3.9592222e-07
3.9592222e-07
3.9592222e-07
3.9592222e-07
3.9592222e-07
3.9592225e-07
3.9592225e-07
3.9592225e-07
3.9592222e-07
3.9592222e-07
3.9592222e-07
3.9592226e-07
3.9592226e-07
3.9592226e-07
3.9592226e-07
3.9592226e-07
3.9592226e-07
3.9592226e-07
3.9592226e-07
3.9592226e-07
3.9592226e-07
)
;

boundaryField
{
    Side
    {
        type            empty;
    }
    Inlet
    {
        type            inletOutlet;
        inletValue      uniform 3.9592226e-07;
        value           nonuniform List<scalar> 
15
(
3.9592226e-07
3.9592226e-07
3.9592226e-07
3.9592226e-07
3.9592226e-07
3.9592226e-07
3.9592226e-07
3.9592226e-07
3.9592226e-07
3.9592226e-07
3.9592226e-07
3.9592226e-07
3.9592226e-07
3.9592226e-07
3.9592226e-07
)
;
    }
    Airfoil
    {
        type            nutUSpaldingWallFunction;
        value           nonuniform List<scalar> 0();
    }
    Outlet
    {
        type            zeroGradient;
    }
    Flap
    {
        type            nutUSpaldingWallFunction;
        value           nonuniform List<scalar> 0();
    }
    procBoundary5to4
    {
        type            processor;
        value           nonuniform List<scalar> 
189
(
3.959208e-07
3.9592072e-07
3.9592066e-07
3.9592058e-07
3.9592051e-07
3.9592042e-07
3.9592034e-07
3.9592024e-07
3.9592014e-07
3.9592004e-07
3.9591989e-07
3.9591976e-07
3.9591962e-07
3.9591947e-07
3.9592215e-07
3.9592215e-07
3.9592215e-07
3.9592215e-07
3.9592215e-07
3.9592215e-07
3.9592214e-07
3.9592214e-07
3.9592214e-07
3.9592212e-07
3.9592212e-07
3.9592212e-07
3.959221e-07
3.959221e-07
3.959221e-07
3.9592207e-07
3.9592207e-07
3.9592203e-07
3.9592204e-07
3.9592204e-07
3.9592215e-07
3.9592199e-07
3.9592199e-07
3.95922e-07
3.95922e-07
3.95922e-07
3.95922e-07
3.9592194e-07
3.9592195e-07
3.9592196e-07
3.9592196e-07
3.9592196e-07
3.9592189e-07
3.959219e-07
3.959219e-07
3.9592191e-07
3.9592192e-07
3.9592192e-07
3.9592112e-07
3.9592148e-07
3.9592148e-07
3.9592159e-07
3.9592159e-07
3.959217e-07
3.9592184e-07
3.9592184e-07
3.9591264e-07
3.9591264e-07
3.9591269e-07
3.9591271e-07
3.9591271e-07
3.9590646e-07
3.9591725e-07
3.9591719e-07
3.959171e-07
3.9591705e-07
3.9591708e-07
3.9591708e-07
3.9591936e-07
3.9591929e-07
3.9591925e-07
3.9591921e-07
3.9591921e-07
3.959061e-07
3.9589996e-07
3.9588472e-07
3.9584428e-07
3.9574903e-07
3.9574903e-07
3.9508251e-07
3.9448061e-07
3.9385744e-07
3.9385744e-07
3.9193265e-07
3.9214677e-07
3.9294583e-07
3.9294583e-07
3.9348923e-07
3.9446614e-07
3.9518259e-07
3.9518259e-07
3.9551673e-07
3.9566615e-07
3.9576462e-07
3.958477e-07
3.958477e-07
3.9599362e-07
3.9606716e-07
3.961936e-07
3.9629688e-07
3.9644355e-07
3.9657938e-07
3.9668953e-07
3.9673253e-07
3.9669652e-07
3.9658815e-07
3.9658815e-07
3.9592168e-07
3.9592112e-07
3.9592131e-07
3.9592146e-07
3.9592158e-07
3.9592167e-07
3.9592167e-07
3.9591924e-07
3.9592005e-07
3.9592054e-07
3.9592089e-07
3.9592089e-07
3.9602221e-07
3.9590802e-07
3.9591923e-07
3.9591923e-07
3.9763488e-07
3.9559953e-07
3.9559953e-07
3.9592225e-07
3.9592225e-07
3.9592226e-07
3.9592226e-07
3.9592226e-07
3.9592225e-07
3.9592225e-07
3.9592224e-07
3.9592224e-07
3.9592216e-07
3.9592215e-07
3.9592215e-07
3.9592221e-07
3.9592222e-07
3.9592222e-07
3.9592222e-07
3.9592222e-07
3.9592222e-07
3.9592222e-07
3.9592222e-07
3.9592222e-07
3.9592222e-07
3.9592222e-07
3.9592222e-07
3.9592222e-07
3.9592224e-07
3.9592224e-07
3.9592226e-07
3.9592226e-07
3.9592226e-07
3.9592226e-07
3.9592226e-07
3.9592226e-07
3.9592226e-07
3.9592226e-07
3.9592226e-07
3.9592226e-07
3.9592226e-07
3.9592226e-07
3.9592226e-07
3.9592226e-07
3.9592226e-07
3.9592226e-07
3.9592226e-07
3.9592225e-07
3.9592225e-07
3.9592225e-07
3.9592224e-07
3.9592224e-07
3.9592224e-07
3.9592226e-07
3.9592226e-07
3.9592226e-07
3.9592226e-07
3.9592226e-07
3.9592226e-07
3.9592226e-07
3.9592226e-07
3.9592226e-07
)
;
    }
    procBoundary5to6
    {
        type            processor;
        value           nonuniform List<scalar> 
188
(
3.9592209e-07
3.9592209e-07
3.9592209e-07
3.9592209e-07
3.9592209e-07
3.9592209e-07
3.9592209e-07
3.9592209e-07
3.9592209e-07
3.9592208e-07
3.9592208e-07
3.9592208e-07
3.9592208e-07
3.9592208e-07
3.959221e-07
3.9592211e-07
3.9592212e-07
3.9592213e-07
3.9592212e-07
3.9592212e-07
3.9592214e-07
3.9592215e-07
3.9592216e-07
3.9592216e-07
3.9592216e-07
3.9592217e-07
3.9592217e-07
3.9592218e-07
3.9592218e-07
3.9592218e-07
3.9592219e-07
3.9592222e-07
3.9592222e-07
3.9592223e-07
3.9592219e-07
3.9592223e-07
3.9592205e-07
3.9592205e-07
3.9592206e-07
3.9592206e-07
3.9592208e-07
3.9592208e-07
3.9592208e-07
3.9592208e-07
3.9592208e-07
3.9592208e-07
3.9592208e-07
3.9592209e-07
3.9592209e-07
3.9592205e-07
3.9592209e-07
3.9592206e-07
3.9592206e-07
3.9592206e-07
3.9592206e-07
3.9592206e-07
3.9592206e-07
3.9592206e-07
3.9592206e-07
3.9592206e-07
3.9592206e-07
3.9592206e-07
3.9592206e-07
3.9592206e-07
3.9592206e-07
3.9592206e-07
3.9592206e-07
3.9592206e-07
3.9592206e-07
3.9592206e-07
3.9592206e-07
3.9592206e-07
3.9592206e-07
3.9592206e-07
3.9592206e-07
3.9592206e-07
3.9592206e-07
3.9592206e-07
3.9592206e-07
3.959222e-07
3.9592206e-07
3.9592207e-07
3.9592207e-07
3.9592207e-07
3.9592208e-07
3.9592208e-07
3.9592209e-07
3.959221e-07
3.959221e-07
3.9592211e-07
3.9592211e-07
3.9592212e-07
3.9592213e-07
3.9592213e-07
3.959222e-07
3.9592226e-07
3.9592226e-07
3.9592226e-07
3.9592226e-07
3.9592226e-07
3.9592226e-07
3.9592226e-07
3.9592226e-07
3.9592226e-07
3.9592226e-07
3.9592226e-07
3.9592226e-07
3.9592226e-07
3.9592226e-07
3.9592226e-07
3.9592226e-07
3.9592226e-07
3.9592226e-07
3.9592226e-07
3.9592226e-07
3.9592226e-07
3.9592226e-07
3.9592226e-07
3.9592226e-07
3.9592226e-07
3.9592226e-07
3.9592226e-07
3.9592226e-07
3.9592226e-07
3.9592225e-07
3.9592225e-07
3.9592225e-07
3.9592225e-07
3.9592225e-07
3.9592225e-07
3.9592225e-07
3.9592225e-07
3.9592225e-07
3.9592225e-07
3.9592226e-07
3.9592226e-07
3.9592226e-07
3.9592226e-07
3.9592226e-07
3.9592226e-07
3.9592226e-07
3.9592226e-07
3.9592226e-07
3.9592226e-07
3.9592226e-07
3.9592226e-07
3.9592226e-07
3.9592226e-07
3.9592226e-07
3.9592226e-07
3.9592226e-07
3.9592226e-07
3.959222e-07
3.9592224e-07
3.9592224e-07
3.9592224e-07
3.9592225e-07
3.9592225e-07
3.9592225e-07
3.9592225e-07
3.9592226e-07
3.9592226e-07
3.9592226e-07
3.9592226e-07
3.9592226e-07
3.9592226e-07
3.9592226e-07
3.9592226e-07
3.9592226e-07
3.9592225e-07
3.9592225e-07
3.9592225e-07
3.9592225e-07
3.9592225e-07
3.9592225e-07
3.9592225e-07
3.9592225e-07
3.9592225e-07
3.9592225e-07
3.9592225e-07
3.9592225e-07
3.9592225e-07
3.9592225e-07
3.9592225e-07
3.9592225e-07
3.9592225e-07
3.9592225e-07
3.9592222e-07
)
;
    }
}


// ************************************************************************* //
