/*--------------------------------*- C++ -*----------------------------------*\
| =========                 |                                                 |
| \\      /  F ield         | OpenFOAM: The Open Source CFD Toolbox           |
|  \\    /   O peration     | Version:  2206                                  |
|   \\  /    A nd           | Website:  www.openfoam.com                      |
|    \\/     M anipulation  |                                                 |
\*---------------------------------------------------------------------------*/
FoamFile
{
    version     2.0;
    format      ascii;
    arch        "LSB;label=32;scalar=64";
    class       surfaceScalarField;
    location    "0.01";
    object      phi;
}
// * * * * * * * * * * * * * * * * * * * * * * * * * * * * * * * * * * * * * //

dimensions      [1 0 -1 0 0 0 0];

oriented        oriented;

internalField   nonuniform List<scalar> 
2596
(
-0.0023038659
0.0016609819
0.002347576
-0.0022601559
0.0016609819
-0.0022164458
0.0016609819
-0.0021727358
0.0016609819
-0.0021290257
0.0016609819
-0.0020853157
0.0016609819
-0.0020416056
0.0016609819
-0.0019978956
0.0016609819
-0.0019541855
0.0016609819
-0.0019104755
0.0016609819
-0.0018667654
0.0016609819
-0.0018230554
0.0016609819
-0.0017793453
0.0016609819
0.0016609819
-0.0017356353
-0.0023038659
0.0016172718
0.002347576
-0.0022601559
0.0016172718
-0.0022164458
0.0016172718
-0.0021727358
0.0016172718
-0.0021290257
0.0016172718
-0.0020853157
0.0016172718
-0.0020416056
0.0016172718
-0.0019978956
0.0016172718
-0.0019541855
0.0016172718
-0.0019104755
0.0016172718
-0.0018667654
0.0016172718
-0.0018230554
0.0016172718
-0.0017793453
0.0016172718
0.0016172718
-0.0017356353
-0.0023038659
0.0015735618
0.0023475759
-0.0022601558
0.0015735618
-0.0022164458
0.0015735618
-0.0021727357
0.0015735618
-0.0021290257
0.0015735618
-0.0020853156
0.0015735618
-0.0020416056
0.0015735618
-0.0019978955
0.0015735618
-0.0019541855
0.0015735618
-0.0019104754
0.0015735618
-0.0018667654
0.0015735618
-0.0018230553
0.0015735618
-0.0017793453
0.0015735618
0.0015735618
-0.0017356352
-0.0023038659
0.0015298517
0.002347576
-0.0022601559
0.0015298517
-0.0022164458
0.0015298517
-0.0021727358
0.0015298517
-0.0021290257
0.0015298517
-0.0020853157
0.0015298517
-0.0020416056
0.0015298517
-0.0019978956
0.0015298517
-0.0019541855
0.0015298517
-0.0019104755
0.0015298517
-0.0018667654
0.0015298517
-0.0018230554
0.0015298517
-0.0017793453
0.0015298517
0.0015298517
-0.0017356353
-0.0023038659
0.0014861417
0.002347576
-0.0022601559
0.0014861417
-0.0022164458
0.0014861417
-0.0021727358
0.0014861417
-0.0021290257
0.0014861417
-0.0020853157
0.0014861417
-0.0020416056
0.0014861417
-0.0019978956
0.0014861417
-0.0019541855
0.0014861417
-0.0019104755
0.0014861417
-0.0018667654
0.0014861417
-0.0018230554
0.0014861417
-0.0017793453
0.0014861417
0.0014861417
-0.0017356353
-0.0023038659
0.0014424316
0.0023475759
-0.0022601558
0.0014424316
-0.0022164458
0.0014424316
-0.0021727357
0.0014424316
-0.0021290257
0.0014424316
-0.0020853156
0.0014424316
-0.0020416056
0.0014424316
-0.0019978955
0.0014424316
-0.0019541855
0.0014424316
-0.0019104754
0.0014424316
-0.0018667654
0.0014424316
-0.0018230553
0.0014424316
-0.0017793453
0.0014424316
0.0014424316
-0.0017356352
-0.0023038659
0.0013987216
0.002347576
-0.0022601559
0.0013987216
-0.0022164458
0.0013987216
-0.0021727358
0.0013987216
-0.0021290257
0.0013987216
-0.0020853157
0.0013987216
-0.0020416056
0.0013987216
-0.0019978956
0.0013987216
-0.0019541855
0.0013987216
-0.0019104755
0.0013987216
-0.0018667654
0.0013987216
-0.0018230554
0.0013987216
-0.0017793453
0.0013987216
0.0013987216
-0.0017356353
-0.0023038659
0.002347576
-0.0022601559
-0.0022164458
-0.0021727358
-0.0021290257
-0.0020853157
-0.0020416056
-0.0019978956
-0.0019541855
-0.0019104755
-0.0018667654
-0.0018230554
-0.0017793453
-0.0017356353
0.014258997
0.0015672326
0.01429178
0.0015672325
0.014324562
-0.001600015
0.0015672325
0.014357345
-0.0016000151
0.0015672326
0.014390127
-0.001600015
0.0015672325
0.01442291
-0.001600015
0.0015672324
0.014455692
-0.0016000151
0.0015672325
0.014488475
-0.001600015
0.0015672326
-0.001600015
0.014521257
0.0015672325
0.014324562
0.014357345
0.014390127
-0.0016327975
0.01442291
-0.0016327975
0.014455692
-0.0016327976
0.014488475
-0.0016327975
-0.0016327976
0.014521257
0.014390127
0.01442291
0.014455692
-0.0016655801
0.014488475
-0.0016655801
-0.0016655802
0.014521257
0.014455692
0.014488475
-0.0016983627
-0.0016983626
0.014521257
0.014488475
0.014521257
0.00015584841
0.014398825
0.00027828061
0.014398825
0.00040071276
0.014398825
0.00052314496
0.014398825
0.00064557719
0.014398825
0.014398825
0.00076800939
0.00015584846
0.014276393
0.00027828069
0.014276393
0.00040071289
0.014276393
0.00052314504
0.014276393
0.00064557719
0.014276393
0.014276393
0.00076800934
0.00015584841
0.014153961
0.00027828061
0.014153961
0.00040071276
0.014153961
0.00052314504
0.014153961
0.00064557719
0.014153961
0.014153961
0.00076800939
0.00015584854
0.014031529
0.00027828061
0.014031529
0.00040071289
0.014031529
0.00052314491
0.014031529
0.00064557719
0.014031529
0.014031529
0.00076800943
0.00015584841
0.013909096
0.00027828061
0.013909096
0.00040071276
0.013909096
0.00052314504
0.013909096
0.00064557724
0.013909096
0.013909096
0.00076800939
3.3416176e-05
0.013786664
0.00015584846
0.013786664
0.00027828065
0.013786664
0.00040071285
0.013786664
0.00052314504
0.013786664
0.00064557719
0.013786664
0.013786664
0.00076800934
3.3416262e-05
0.013664232
0.00015584841
0.013664232
0.00027828061
0.013664232
0.0004007128
0.013664232
0.00052314496
0.013664232
0.00064557719
0.013664232
0.013664232
0.00076800939
3.3416262e-05
0.0135418
0.00015584846
0.0135418
0.00027828061
0.0135418
0.00040071285
0.0135418
0.000523145
0.0135418
0.00064557719
0.0135418
0.0135418
0.00076800939
3.3416262e-05
0.013419368
0.00015584841
0.013419368
0.00027828061
0.013419368
0.00040071276
0.013419368
0.00052314504
0.013419368
0.00064557719
0.013419368
0.013419368
0.00076800934
-8.901589e-05
0.013296935
3.3416306e-05
0.013296935
0.00015584846
0.013296935
0.00027828069
0.013296935
0.00040071289
0.013296935
0.00052314504
0.013296935
0.00064557711
0.013296936
0.013296935
0.00076800939
-8.9015975e-05
0.013174503
3.3416176e-05
0.013174503
0.00015584841
0.013174503
0.00027828061
0.013174503
0.00040071276
0.013174503
0.00052314496
0.013174503
0.00064557724
0.013174503
0.013174503
0.00076800943
-8.901589e-05
0.013052071
3.3416262e-05
0.013052071
0.00015584846
0.013052071
0.00027828061
0.013052071
0.00040071276
0.013052071
0.000523145
0.013052071
0.00064557719
0.013052071
0.013052071
0.00076800939
-8.9016019e-05
0.012929639
3.3416262e-05
0.012929639
0.00015584841
0.012929639
0.00027828061
0.012929639
0.00040071289
0.012929639
0.00052314504
0.012929639
0.00064557719
0.012929639
0.012929639
0.00076800934
-8.901589e-05
0.012807207
3.3416262e-05
0.012807207
0.00015584846
0.012807207
0.00027828069
0.012807207
0.00040071276
0.012807207
0.00052314496
0.012807207
0.00064557719
0.012807207
0.012807207
0.00076800939
0.012994489
0.0023007554
0.01304131
0.0023007553
0.01308813
0.0023007553
0.013134951
0.0023007553
0.013181772
0.0023007553
0.013228592
0.0023007553
0.013275413
0.0023007553
0.0023007554
0.012994489
0.0022539347
0.01304131
0.0022539347
0.01308813
0.0022539347
0.013134951
0.0022539348
0.013181772
0.0022539348
0.013228592
0.0022539347
0.013275413
0.0022539348
0.0022539347
0.012947669
0.0022071141
0.012994489
0.0022071141
0.01304131
0.0022071141
0.01308813
0.0022071141
0.013134951
0.0022071141
0.013181772
0.0022071141
0.013228592
0.0022071141
0.013275413
0.0022071141
0.0022071141
0.012900848
0.0021602935
0.012947669
0.0021602935
0.012994489
0.0021602935
0.01304131
0.0021602935
0.01308813
0.0021602935
0.013134951
0.0021602935
0.013181772
0.0021602935
0.013228592
0.0021602935
0.013275413
0.0021602935
0.012900848
0.0021134729
0.012947669
0.0021134729
0.012994489
0.0021134729
0.01304131
0.0021134729
0.01308813
0.0021134729
0.013134951
0.0021134729
0.013181772
0.0021134729
0.013228592
0.0021134729
0.0021134729
0.012854027
0.0020666523
0.012900848
0.0020666523
0.012947669
0.0020666523
0.012994489
0.0020666523
0.01304131
0.0020666523
0.01308813
0.0020666523
0.013134951
0.0020666523
0.013181772
0.0020666523
0.013228592
0.0020666523
0.0020666523
0.012854027
0.0020198317
0.012900848
0.0020198317
0.012947669
0.0020198317
0.012994489
0.0020198317
0.01304131
0.0020198317
0.01308813
0.0020198317
0.013134951
0.0020198317
0.013181772
0.0020198317
0.013228592
0.0020198317
0.0020198317
0.012854027
0.0019730111
0.012900848
0.0019730111
0.012947669
0.0019730112
0.012994489
0.0019730111
0.01304131
0.0019730111
0.01308813
0.0019730112
0.013134951
0.0019730111
0.013181772
0.0019730111
0.013228592
0.0019730111
0.012854027
0.0019261905
0.012900848
0.0019261904
0.012947669
0.0019261906
0.012994489
0.0019261904
0.01304131
0.0019261905
0.01308813
0.0019261904
0.013134951
0.0019261906
0.013181772
0.0019261905
0.0019261904
0.012854027
0.0018793699
0.012900848
0.0018793699
0.012947669
0.0018793699
0.012994489
0.0018793699
0.01304131
0.0018793699
0.01308813
0.0018793699
0.013134951
0.0018793699
0.013181772
0.0018793699
0.0018793699
0.012854027
0.0018325493
0.012900848
0.0018325493
0.012947669
0.0018325492
0.012994489
0.0018325494
0.01304131
0.0018325492
0.01308813
0.0018325493
0.013134951
0.0018325492
0.013181772
0.0018325493
0.012854027
0.0017857287
0.012900848
0.0017857286
0.012947669
0.0017857286
0.012994489
0.0017857286
0.01304131
0.0017857287
0.01308813
0.0017857286
0.013134951
0.0017857286
0.0017857287
0.012854027
0.001738908
0.012900848
0.0017389082
0.012947669
0.001738908
0.012994489
0.001738908
0.01304131
0.0017389081
0.01308813
0.0017389081
0.013134951
0.001738908
0.012854027
0.0016920874
0.012900848
0.0016920875
0.012947669
0.0016920874
0.012994489
0.01304131
0.01308813
0.0032478666
-0.00087398122
-0.0011201705
0.0031863204
-0.001058624
0.0031863204
-0.00099707759
0.0031863205
-0.00093553104
0.0031863204
0.0031863204
-0.00087398461
-0.0014279029
0.003124774
-0.0013663564
0.0031247739
-0.00130481
0.003124774
-0.0012432635
0.0031247739
-0.001181717
0.003124774
-0.0011201705
0.0031247739
-0.0010586241
0.003124774
-0.00099707758
0.003124774
-0.00093553112
0.0031247739
0.003124774
-0.00087398466
-0.0016740888
0.0030632275
-0.0016125423
0.0030632274
-0.0015509958
0.0030632275
-0.0014894493
0.0030632275
-0.0014279029
0.0030632275
-0.0013663564
0.0030632275
-0.0013048099
0.0030632275
-0.0012432635
0.0030632275
-0.001181717
0.0030632275
-0.0011201705
0.0030632274
-0.0010586241
0.0030632275
-0.00099707762
0.0030632275
-0.00093553112
0.0030632275
0.0030632275
-0.00087398466
-0.0016740888
0.003001681
-0.0016125423
0.003001681
-0.0015509958
0.003001681
-0.0014894494
0.003001681
-0.0014279029
0.003001681
-0.0013663564
0.003001681
-0.00130481
0.003001681
-0.0012432635
0.003001681
-0.001181717
0.003001681
-0.0011201706
0.003001681
-0.0010586241
0.003001681
-0.00099707758
0.003001681
-0.00093553117
0.003001681
0.003001681
-0.00087398466
-0.0016740888
0.0029401345
-0.0016125424
0.0029401346
-0.0015509958
0.0029401345
-0.0014894494
0.0029401345
-0.0014279029
0.0029401345
-0.0013663564
0.0029401345
-0.00130481
0.0029401345
-0.0012432635
0.0029401345
-0.001181717
0.0029401345
-0.0011201706
0.0029401346
-0.0010586241
0.0029401345
-0.00099707763
0.0029401345
-0.00093553112
0.0029401345
0.0029401345
-0.00087398466
-0.0016740888
0.0028785881
-0.0016125423
0.0028785881
-0.0015509958
0.0028785881
-0.0014894493
0.002878588
-0.0014279029
0.0028785881
-0.0013663564
0.0028785881
-0.00130481
0.0028785881
-0.0012432635
0.0028785881
-0.001181717
0.0028785881
-0.0011201705
0.0028785881
-0.001058624
0.002878588
-0.00099707758
0.0028785881
-0.00093553112
0.0028785881
0.0028785881
-0.00087398466
-0.0016740888
0.0028170416
-0.0016125423
0.0028170416
-0.0015509958
0.0028170416
-0.0014894494
0.0028170416
-0.0014279029
0.0028170416
-0.0013663564
0.0028170416
-0.00130481
0.0028170416
-0.0012432635
0.0028170416
-0.001181717
0.0028170416
-0.0011201706
0.0028170416
-0.0010586241
0.0028170416
-0.00099707763
0.0028170416
-0.00093553112
0.0028170416
0.0028170416
-0.00087398466
-0.0016740888
0.0027554952
-0.0016125423
0.0027554951
-0.0015509958
0.0027554951
-0.0014894494
0.0027554952
-0.0014279029
0.0027554951
-0.0013663564
0.0027554951
-0.00130481
0.0027554951
-0.0012432635
0.0027554951
-0.001181717
0.0027554951
-0.0011201705
0.0027554952
-0.0010586241
0.0027554951
-0.00099707758
0.0027554951
-0.00093553117
0.0027554952
0.0027554951
-0.00087398466
-0.0016740888
0.0026939487
-0.0016125423
0.0026939487
-0.0015509958
0.0026939487
-0.0014894493
0.0026939487
-0.0014279029
0.0026939487
-0.0013663565
0.0026939487
-0.00130481
0.0026939487
-0.0012432635
0.0026939487
-0.001181717
0.0026939487
-0.0011201705
0.0026939487
-0.0010586241
-0.00099707763
-0.00093553112
-0.00087398466
-0.0016740888
-0.0016125423
-0.0015509958
-0.0014894494
-0.0014279029
-0.0013663564
-0.0013048099
-0.0012432635
-0.001181717
-0.00022850677
0.0018653355
-0.00025504413
0.0018635356
-0.00028170516
0.0018610522
-0.0018158785
-0.00030935914
0.0018586703
-0.00030050923
-0.0018134152
-0.00033850277
0.001857723
-0.00033156046
-0.0018167567
-0.00036860633
0.0018590438
-0.000365079
-0.0018243975
-0.00039840234
0.0018620212
-0.0017782913
-0.00039790255
-0.00039868362
-0.0018322119
-0.00042711402
0.0018649446
-0.0017946131
-0.00042802633
-0.00043116131
-0.0018371356
-0.00045512467
0.0018665854
-0.0018057677
-0.00045622811
-0.00045970236
0.00024535779
-0.00048801518
0.00026580178
-0.00047954323
0.00028595497
-0.00047604663
-0.00047494469
0.00030590624
0.00024560097
-0.00050801756
0.00026592443
-0.00049941496
0.00028600263
-0.00049588391
-0.00049477847
0.00030592228
0.00024585318
0.00026605209
-0.00051929312
0.00028605299
-0.00051572691
-0.000514615
0.00030593873
0.00026617196
-0.00053918053
0.00028609942
-0.00053557342
-0.00053445174
0.00030595365
0.00026628806
-0.00055907978
0.00028614375
-0.00055542539
-0.00055428981
0.00030596786
0.00026639836
-0.00057898878
0.00028618583
-0.00057528416
-0.00057412697
0.00030598144
0.0002665015
-0.0005989027
0.00028622529
-0.00059515262
-0.0005939636
0.00030599453
0.00026659742
-0.00061880019
0.00028626226
-0.00061503106
-0.00061380021
0.0003060065
0.0002666852
-0.00063864866
0.00028629637
-0.00063491659
-0.00063363794
0.00030601725
0.00026676396
-0.00065839157
0.00028632768
-0.00065479397
-0.00065347733
0.00030602698
0.00026683648
-0.00067797292
0.00028635611
-0.0006746295
-0.00067331494
0.00030603544
0.00026690834
-0.00069736999
0.0002863828
-0.00069439418
-0.00069314499
0.00030604335
0.00026698253
-0.0007166255
0.0002864092
-0.00071409712
-0.00071296301
0.00030605145
0.00026704886
-0.00073579854
0.0002864324
-0.00073376526
0.00030606102
-0.00073276683
-0.00082803859
0.0018210961
-0.00078208462
0.0018210959
-0.00073610277
0.0018210949
-0.0006900507
0.0018210924
-0.00064385517
0.0018210859
-0.00059744741
0.0018210709
-0.00055086051
0.0018210428
-0.00050433822
0.0018210023
-0.00045828349
0.0018209618
-0.00041291155
0.0018209443
-0.0003679371
0.0018209668
-0.00032273082
0.0018210187
-0.00027696882
0.0018210679
0.0018210918
-0.0002308942
-0.00082804498
0.0017751566
-0.00078210512
0.0017751566
-0.00073616489
0.0017751566
-0.00069022356
0.0017751566
-0.00064427988
0.0017751564
-0.00059833277
0.0017751563
-0.0005523823
0.001775156
-0.00050643204
0.0017751555
-0.00046048876
0.001775155
-0.00041455718
0.0017751548
-0.00036862458
0.001775155
-0.00032269141
0.0017751553
-0.00027676416
0.001775156
0.0017751567
-0.00023082987
-0.00082804503
0.001729217
-0.00078210545
0.001729217
-0.00073616581
0.001729217
-0.00069022619
0.001729217
-0.00064428655
0.001729217
-0.00059834685
0.001729217
-0.00055240704
0.001729217
-0.00050646729
0.001729217
-0.00046052759
0.001729217
-0.00041458809
0.001729217
-0.0003686487
0.001729217
-0.00032270912
0.001729217
-0.00027676946
0.001729217
0.0017292171
-0.00023083015
-0.00082804508
0.0016832774
-0.00078210545
0.0016832774
-0.00073616586
0.0016832774
-0.00069022624
0.0016832774
-0.00064428665
0.0016832774
-0.00059834702
0.0016832774
-0.00055240748
0.0016832774
-0.00050646784
0.0016832774
-0.00046052826
0.0016832774
-0.00041458864
0.0016832774
-0.00036864905
0.0016832774
-0.00032270943
0.0016832774
-0.00027676985
0.0016832774
0.0016832774
-0.00023083014
-0.00082804508
0.0016373378
-0.00078210545
0.0016373378
-0.00073616587
0.0016373378
-0.00069022628
0.0016373378
-0.00064428665
0.0016373378
-0.00059834707
0.0016373378
-0.00055240744
0.0016373378
-0.00050646782
0.0016373378
-0.00046052823
0.0016373378
-0.00041458865
0.0016373378
-0.00036864901
0.0016373378
-0.00032270943
0.0016373378
-0.00027676985
0.0016373378
0.0016373378
-0.00023083023
-0.00082804503
0.0015913982
-0.0007821055
0.0015913982
-0.00073616586
0.0015913982
-0.00069022624
0.0015913982
-0.00064428665
0.0015913982
-0.00059834707
0.0015913982
-0.00055240745
0.0015913982
-0.00050646785
0.0015913982
-0.00046052822
0.0015913982
-0.00041458865
0.0015913982
-0.00036864905
0.0015913982
-0.00032270943
0.0015913982
-0.00027676981
0.0015913982
0.0015913982
-0.00023083028
-0.00082804509
0.0015454586
-0.00078210545
0.0015454586
-0.00073616587
0.0015454586
-0.00069022623
0.0015454586
-0.00064428665
0.0015454586
-0.00059834702
0.0015454586
-0.00055240744
0.0015454586
-0.00050646786
0.0015454586
-0.00046052828
0.0015454586
-0.00041458865
0.0015454586
-0.00036864904
0.0015454586
-0.00032270943
0.0015454586
-0.00027676985
0.0015454586
0.0015454586
-0.00023083023
-0.00082804503
0.001499519
-0.00078210546
0.001499519
-0.00073616582
0.001499519
-0.00069022628
0.001499519
-0.00064428665
0.001499519
-0.00059834708
0.001499519
-0.00055240744
0.001499519
-0.00050646785
0.001499519
-0.00046052823
0.001499519
-0.0004145886
0.001499519
-0.00036864906
0.001499519
-0.00032270943
0.001499519
-0.00027676985
0.001499519
0.001499519
-0.00023083023
-0.00082804508
0.0014535794
-0.00078210545
0.0014535794
-0.00073616587
0.0014535794
-0.00069022624
0.0014535794
-0.00064428665
0.0014535794
-0.00059834702
0.0014535794
-0.00055240745
0.0014535794
-0.00050646782
0.0014535794
-0.00046052822
0.0014535794
-0.00041458864
0.0014535794
-0.00036864902
0.0014535794
-0.00032270943
0.0014535794
-0.00027676985
0.0014535795
0.0014535794
-0.00023083028
-0.00082804508
-0.00078210545
-0.00073616586
-0.00069022628
-0.00064428665
-0.00059834707
-0.00055240744
-0.00050646785
-0.00046052828
-0.00041458865
-0.00036864906
-0.0003227095
-0.00027676981
-0.00023083023
-0.00089605604
0.0010831762
-0.0011487413
-0.00083049098
0.0010831762
-0.0011487413
-0.00076492583
0.0010831761
-0.0011487413
-0.00069936076
0.0010831762
-0.0011487413
-0.0006337957
0.0010831762
-0.0011487413
-0.00056823064
0.0010831762
-0.0011487413
-0.00050266557
0.0010831761
-0.0011487412
-0.00043710052
0.0010831762
-0.0011487413
-0.00037153636
0.0010831766
-0.0011487415
0.0010832075
-0.0011487667
-0.00089605596
0.0010176111
-0.00083049098
0.0010176112
-0.00076492591
0.0010176111
-0.00069936076
0.0010176111
-0.00063379579
0.0010176112
-0.00056823064
0.0010176111
-0.00050266557
0.0010176111
-0.00043710043
0.0010176111
-0.00037153627
0.0010176117
0.0010176476
-0.00089605604
0.00095204602
-0.00083049089
0.00095204606
-0.00076492583
0.00095204602
-0.00069936076
0.00095204602
-0.0006337957
0.00095204615
-0.00056823064
0.00095204602
-0.00050266557
0.00095204602
-0.00043710051
0.00095204603
-0.00037153618
0.00095204678
0.00095208809
-0.00089605604
0.00088648104
-0.00083049098
0.000886481
-0.00076492591
0.00088648095
-0.00069936085
0.00088648095
-0.0006337957
0.000886481
-0.00056823064
0.00088648095
-0.00050266557
0.00088648095
-0.00043710051
0.00088648097
-0.00037153598
0.00088648176
0.00088653006
-0.00089605596
0.00082091589
-0.00083049089
0.00082091593
-0.00076492583
0.00082091589
-0.00069936076
0.00082091589
-0.0006337957
0.00082091593
-0.00056823064
0.00082091589
-0.00050266557
0.00082091589
-0.00043710051
0.00082091591
-0.00037153593
0.00082091683
0.00082097323
-0.00089605604
0.00075535083
-0.00083049098
0.00075535087
-0.00076492591
0.00075535083
-0.00069936076
0.00075535074
-0.0006337957
0.00075535087
-0.00056823064
0.00075535083
-0.00050266557
0.00075535083
-0.00043710051
0.00075535084
-0.00037153577
0.0007553519
0.00075541661
-0.00089605604
0.00068978576
-0.00083049089
0.00068978572
-0.00076492583
0.00068978576
-0.00069936085
0.00068978576
-0.0006337957
0.00068978572
-0.00056823064
0.00068978576
-0.00050266557
0.00068978576
-0.0004371005
0.00068978577
-0.00037153551
0.00068978689
0.00068985978
-0.00089605596
0.00062422061
-0.00083049098
0.00062422074
-0.00076492583
0.00062422061
-0.00069936076
0.0006242207
-0.00063379579
0.00062422074
-0.00056823064
0.00062422061
-0.00050266557
0.0006242207
-0.00043710041
0.00062422061
-0.00037153541
0.00062422193
0.0006243026
-0.00089605604
0.00055865564
-0.00083049089
0.00055865559
-0.00076492591
0.00055865564
-0.00069936076
0.00055865555
-0.0006337957
0.00055865568
-0.00056823064
0.00055865555
-0.00050266557
0.00055865564
-0.00043710049
0.00055865555
-0.00037153521
0.00055865651
0.00055874434
-0.00089605604
0.00049309057
-0.00083049098
0.00049309053
-0.00076492583
0.00049309049
-0.00069936085
0.00049309057
-0.0006337957
0.00049309053
-0.00056823064
0.00049309049
-0.00050266557
0.00049309057
-0.00043710049
0.00049309048
-0.00037153493
0.00049309096
0.00049318414
-0.00089605596
0.00042752542
-0.00083049089
0.00042752547
-0.00076492591
0.00042752551
-0.00069936076
0.00042752542
-0.0006337957
0.00042752547
-0.00056823064
0.00042752542
-0.00050266557
0.00042752551
-0.0004371005
0.00042752542
-0.00037153483
0.00042752619
0.00042761936
-0.00089605604
0.00036196036
-0.00083049098
0.0003619604
-0.00076492583
0.00036196036
-0.00069936076
0.00036196036
-0.0006337957
0.0003619604
-0.00056823064
0.00036196036
-0.00050266557
0.00036196044
-0.00043710049
0.00036196034
-0.00037153464
0.00036196096
0.00036205074
-0.00089605604
0.0002963953
-0.00083049098
0.00029639534
-0.00076492591
0.0002963953
-0.00069936085
0.0002963953
-0.00063379579
0.00029639534
-0.00056823072
0.0002963953
-0.00050266549
0.00029639521
-0.00043710041
0.00029639526
-0.0003715344
0.00029639551
0.00029647607
-0.00089605596
-0.00083049089
-0.00076492583
-0.00069936076
-0.0006337957
-0.00056823064
-0.00050266557
-0.0004371005
-0.00037153438
-0.00032073578
0.0079586867
-0.00027956896
0.0079586867
-0.00023840222
0.0079586867
-0.00019723544
0.0079586868
0.0079586867
-0.00015606871
-0.00048540254
0.0079175174
-0.00044423609
0.0079175201
-0.00040306926
0.0079175199
-0.00036190252
0.00791752
-0.00032073574
0.0079175199
-0.000279569
0.0079175199
-0.00023840222
0.0079175199
-0.00019723544
0.00791752
0.0079175199
-0.00015606866
-0.00060919094
0.0078805865
-0.00056770525
0.0078759731
-0.00052657197
0.0078763796
-0.00048540267
0.0078763519
-0.00044423604
0.0078763532
-0.0004030693
0.0078763532
-0.00036190252
0.0078763532
-0.00032073574
0.0078763532
-0.00027956896
0.0078763532
-0.00023840218
0.0078763532
-0.00019723549
0.0078763533
0.0078763532
-0.00015606871
-0.00069141723
0.0078950218
-0.00064946928
0.0078197373
-0.00060904508
0.0078372289
-0.00056772093
0.0078350069
-0.00052657074
0.0078351986
-0.00048540275
0.0078351859
-0.00044423604
0.0078351864
-0.0004030693
0.0078351864
-0.00036190252
0.0078351865
-0.00032073574
0.0078351864
-0.000279569
0.0078351864
-0.00023840222
0.0078351864
-0.00019723544
0.0078351865
0.0078351864
-0.00015606866
-0.00069146196
0.0078174467
-0.00064979862
0.0077875879
-0.00060895619
0.007794883
-0.00056772944
0.0077939453
-0.00052657011
0.0077940246
-0.00048540278
0.0077940195
-0.00044423604
0.0077940196
-0.00040306926
0.0077940196
-0.00036190252
0.0077940197
-0.00032073578
0.0077940196
-0.000279569
0.0077940196
-0.00023840222
0.0077940196
-0.00019723544
0.0077940197
0.0077940196
-0.00015606871
-0.00069138753
0.0077602898
-0.00064996485
0.0077507718
-0.0006089203
0.0077531471
-0.00056773404
0.0077528272
-0.00052656979
0.0077528545
-0.0004854028
0.0077528529
-0.00044423608
0.0077528529
-0.0004030693
0.0077528529
-0.00036190252
0.007752853
-0.00032073574
0.0077528529
-0.00027956896
0.0077528529
-0.00023840222
0.0077528529
-0.00019723544
0.007752853
0.0077528529
-0.00015606866
-0.00069128994
0.0077133379
-0.00065004306
0.0077112168
-0.00060890688
0.0077117493
-0.00056773598
0.0077116796
-0.0005265696
0.0077116865
-0.00048540281
0.0077116862
-0.00044423604
0.0077116861
-0.00040306926
0.0077116861
-0.00036190252
0.0077116862
-0.00032073574
0.0077116861
-0.000279569
0.0077116861
-0.00023840222
0.0077116861
-0.00019723549
0.0077116862
0.0077116861
-0.00015606871
-0.001297275
0.0078602242
-0.0014457901
0.0078602101
-0.0015943198
0.0078602123
-0.0017428456
0.0078602122
-0.0018913716
0.0078602121
-0.0020398976
0.0078602122
-0.0021884238
0.0078602123
-0.0023369498
0.0078602121
-0.0024854759
0.0078602123
-0.0026340019
0.0078602121
-0.002782528
0.0078602123
-0.0029310541
0.0078602122
-0.0030795801
0.0078602122
0.0078602123
-0.0032281063
-0.0012972679
0.0080087382
-0.0014457935
0.0080087391
-0.0015943195
0.0080087381
-0.0017428456
0.0080087383
-0.0018913716
0.0080087382
-0.0020398976
0.0080087382
-0.0021884237
0.0080087383
-0.0023369498
0.0080087383
-0.0024854759
0.0080087383
-0.002634002
0.0080087383
-0.002782528
0.0080087382
-0.0029310541
0.0080087382
-0.0030795801
0.0080087383
0.0080087383
-0.0032281062
-0.0012972674
0.0081572643
-0.0014457934
0.0081572643
-0.0015943194
0.0081572643
-0.0017428455
0.0081572643
-0.0018913716
0.0081572643
-0.0020398978
0.0081572644
-0.0021884238
0.0081572643
-0.0023369498
0.0081572643
-0.0024854759
0.0081572643
-0.0026340019
0.0081572643
-0.002782528
0.0081572643
-0.0029310541
0.0081572643
-0.0030795802
0.0081572644
0.0081572643
-0.0032281063
-0.0012972673
0.0083057904
-0.0014457934
0.0083057904
-0.0015943195
0.0083057905
-0.0017428456
0.0083057904
-0.0018913716
0.0083057904
-0.0020398976
0.0083057904
-0.0021884237
0.0083057904
-0.0023369498
0.0083057904
-0.0024854759
0.0083057904
-0.002634002
0.0083057904
-0.002782528
0.0083057904
-0.0029310541
0.0083057904
-0.0030795801
0.0083057904
0.0083057904
-0.0032281061
-0.0012972674
0.0084543165
-0.0014457934
0.0084543164
-0.0015943194
0.0084543165
-0.0017428456
0.0084543165
-0.0018913716
0.0084543164
-0.0020398977
0.0084543165
-0.0021884238
0.0084543165
-0.0023369498
0.0084543165
-0.0024854759
0.0084543164
-0.0026340019
0.0084543165
-0.002782528
0.0084543165
-0.0029310541
0.0084543164
-0.0030795801
0.0084543165
0.0084543165
-0.0032281063
-0.0012972672
0.0086028425
-0.0014457934
0.0086028426
-0.0015943194
0.0086028425
-0.0017428455
0.0086028426
-0.0018913716
0.0086028425
-0.0020398976
0.0086028426
-0.0021884237
0.0086028425
-0.0023369497
0.0086028426
-0.0024854758
0.0086028425
-0.0026340019
0.0086028426
-0.002782528
0.0086028426
-0.0029310541
0.0086028425
-0.0030795801
0.0086028426
0.0086028425
-0.0032281062
-0.0012972674
0.0087513686
-0.0014457935
0.0087513686
-0.0015943195
0.0087513686
-0.0017428456
0.0087513686
-0.0018913716
0.0087513686
-0.0020398977
0.0087513686
-0.0021884238
0.0087513686
-0.0023369498
0.0087513686
-0.002485476
0.0087513686
-0.002634002
0.0087513686
-0.002782528
0.0087513686
-0.0029310541
0.0087513686
-0.0030795802
0.0087513686
0.0087513686
-0.0032281063
-0.0012972673
0.0088998946
-0.0014457934
0.0088998947
-0.0015943194
0.0088998946
-0.0017428456
0.0088998947
-0.0018913716
0.0088998946
-0.0020398977
0.0088998947
-0.0021884238
0.0088998947
-0.0023369498
0.0088998946
-0.0024854759
0.0088998947
-0.0026340019
0.0088998946
-0.002782528
0.0088998947
-0.0029310541
0.0088998946
-0.0030795801
0.0088998947
0.0088998947
-0.0032281063
-0.0012972674
0.0090484207
-0.0014457934
0.0090484207
-0.0015943195
0.0090484207
-0.0017428456
0.0090484207
-0.0018913716
0.0090484207
-0.0020398976
0.0090484207
-0.0021884237
0.0090484207
-0.0023369498
0.0090484207
-0.0024854759
0.0090484207
-0.002634002
0.0090484207
-0.002782528
0.0090484207
-0.0029310541
0.0090484207
-0.0030795801
0.0090484207
0.0090484207
-0.0012972673
-0.0014457934
-0.0015943194
-0.0017428455
-0.0018913716
-0.0020398977
-0.0021884238
-0.0023369498
-0.0024854759
-0.0026340019
-0.002782528
-0.0029310541
-0.0030795802
-0.00035672842
0.2915424
-0.0003968604
0.2915424
-0.00043699233
0.2915424
-0.00047712426
0.2915424
-0.29150227
-0.00051725624
0.2915424
-0.29150227
-0.00055738818
0.2915424
-0.29150227
-0.00059752011
0.2915424
-0.29150227
-0.00063765209
0.2915424
-0.29150227
-0.00067778402
0.2915424
-0.29150227
0.2915424
-0.29150227
-0.00031659649
0.29158253
-0.00035672846
0.29158253
-0.00039686035
0.29158253
-0.00043699233
0.29158253
-0.00047712431
0.29158253
-0.0005172562
0.29158253
-0.00055738818
0.29158253
-0.00059752015
0.29158253
-0.00063765204
0.29158253
-0.00067778402
0.29158253
0.29158253
-0.00027646455
0.29162266
-0.00031659649
0.29162266
-0.00035672842
0.29162266
-0.0003968604
0.29162266
-0.00043699233
0.29162266
-0.00047712426
0.29162266
-0.00051725624
0.29162266
-0.00055738818
0.29162266
-0.00059752011
0.29162266
-0.00063765209
0.29162266
-0.00067778402
0.29162266
0.29162266
-0.00023633258
0.29166279
-0.00027646451
0.29166279
-0.00031659649
0.29166279
-0.00035672842
0.29166279
-0.0003968604
0.29166279
-0.00043699233
0.29166279
-0.00047712426
0.29166279
-0.00051725624
0.29166279
-0.00055738818
0.29166279
-0.00059752015
0.29166279
-0.00063765209
0.29166279
-0.00067778402
0.29166279
0.29166279
-0.00023633258
0.29170293
-0.00027646455
0.29170293
-0.00031659649
0.29170293
-0.00035672846
0.29170293
-0.00039686035
0.29170293
-0.00043699233
0.29170293
-0.00047712431
0.29170293
-0.0005172562
0.29170293
-0.00055738818
0.29170293
-0.00059752011
0.29170293
-0.00063765209
0.29170293
-0.00067778402
0.29170293
0.29170293
-0.00019620064
0.29174306
-0.00023633262
0.29174306
-0.00027646455
0.29174306
-0.00031659649
0.29174306
-0.00035672842
0.29174306
-0.0003968604
0.29174306
-0.00043699233
0.29174306
-0.00047712426
0.29174306
-0.00051725624
0.29174306
-0.00055738818
0.29174306
-0.00059752011
0.29174306
-0.00063765204
0.29174306
-0.00067778402
0.29174306
0.29174306
-0.0001962006