/*--------------------------------*- C++ -*----------------------------------*\
| =========                 |                                                 |
| \\      /  F ield         | OpenFOAM: The Open Source CFD Toolbox           |
|  \\    /   O peration     | Version:  2206                                  |
|   \\  /    A nd           | Website:  www.openfoam.com                      |
|    \\/     M anipulation  |                                                 |
\*---------------------------------------------------------------------------*/
FoamFile
{
    version     2.0;
    format      ascii;
    arch        "LSB;label=32;scalar=64";
    class       volVectorField;
    location    "0.01";
    object      U;
}
// * * * * * * * * * * * * * * * * * * * * * * * * * * * * * * * * * * * * * //

dimensions      [0 1 -1 0 0 0 0];

internalField   nonuniform List<vector> 
1396
(
(0.85671779 0.043699275 0)
(0.85671779 0.043699275 0)
(0.85671779 0.043699275 0)
(0.85671779 0.043699275 0)
(0.85671779 0.043699275 0)
(0.85671779 0.043699275 0)
(0.85671779 0.043699275 0)
(0.85671779 0.043699275 0)
(0.85671779 0.043699275 9.6770553e-22)
(0.85671779 0.043699275 -9.6775386e-22)
(0.85671779 0.043699275 0)
(0.85671779 0.043699275 9.6785053e-22)
(0.85671779 0.043699275 -1.9357977e-21)
(0.85671779 0.043699275 9.6794779e-22)
(0.85671779 0.043699275 1.9860913e-21)
(0.85671779 0.043699275 -1.9861891e-21)
(0.85671779 0.043699275 0)
(0.85671779 0.043699275 -1.9863927e-21)
(0.85671779 0.043699275 2.9797418e-21)
(0.85671779 0.043699275 -9.9329817e-22)
(0.85671779 0.043699275 0)
(0.85671779 0.043699275 0)
(0.85671779 0.043699275 -9.9345095e-22)
(0.85671779 0.043699275 1.9870038e-21)
(0.85671779 0.043699275 5.5660671e-34)
(0.85671779 0.043699275 -1.9872075e-21)
(0.85671779 0.043699275 9.9365471e-22)
(0.85671779 0.043699275 0)
(0.85671779 0.043699275 0)
(0.85671779 0.043699275 0)
(0.85671779 0.043699275 0)
(0.85671779 0.043699275 2.0406701e-21)
(0.85671779 0.043699275 -2.0407775e-21)
(0.85671779 0.043699275 1.0204425e-21)
(0.85671779 0.043699275 -1.0204962e-21)
(0.85671779 0.043699275 0)
(0.85671779 0.043699275 0)
(0.85671779 0.043699275 -1.0206575e-21)
(0.85671779 0.043699275 1.0207112e-21)
(0.85671779 0.043699275 0)
(0.85671779 0.043699275 0)
(0.85671779 0.043699275 0)
(0.85671779 0.043699275 -3.8566109e-34)
(0.85671779 0.043699275 -2.0977697e-21)
(0.85671779 0.043699275 0)
(0.85671779 0.043699275 0)
(0.85671779 0.043699275 0)
(0.85671779 0.043699275 0)
(0.85671779 0.043699275 0)
(0.85671779 0.043699275 0)
(0.85671779 0.043699275 -1.0492824e-21)
(0.85671779 0.043699275 1.0493392e-21)
(0.85671779 0.043699275 0)
(0.85671779 0.043699275 0)
(0.85671779 0.043699275 0)
(0.85671779 0.043699275 0)
(0.85671779 0.043699275 0)
(0.85671779 0.043699275 2.1583971e-21)
(0.85671779 0.043699275 1.0975675e-34)
(0.85671779 0.043699275 -4.317275e-21)
(0.85671779 0.043699275 2.1587577e-21)
(0.85671779 0.043699275 0)
(0.85671779 0.043699275 0)
(0.85671779 0.043699275 0)
(0.85671779 0.043699275 1.0796194e-21)
(0.85671779 0.043699275 -1.0796796e-21)
(0.85671779 0.043699275 0)
(0.85671779 0.043699275 0)
(0.85671779 0.043699275 1.0798601e-21)
(0.85671779 0.043699275 -1.0799211e-21)
(0.85671779 0.043699275 0)
(0.85671779 0.043699275 0)
(0.85671779 0.043699275 -2.2227607e-21)
(0.85671779 0.043699275 2.2228882e-21)
(0.85671779 0.043699275 0)
(0.85671779 0.043699275 0)
(0.85671779 0.043699275 0)
(0.85671779 0.043699275 -1.1116991e-21)
(0.85671779 0.043699275 -1.4762285e-34)
(0.85671779 0.043699275 1.1118267e-21)
(0.85671779 0.043699275 0)
(0.85671779 0.043699275 1.1119543e-21)
(0.85671779 0.043699275 -2.2240362e-21)
(0.85671779 0.043699275 1.1120829e-21)
(0.85671779 0.043699275 2.2906807e-21)
(0.85671779 0.043699275 -2.2908099e-21)
(0.85671779 0.043699275 0)
(0.85671779 0.043699275 0)
(0.85671779 0.043699275 0)
(0.85671779 0.043699275 -1.1456758e-21)
(0.85671779 0.043699275 1.1457436e-21)
(0.85671779 0.043699275 0)
(0.85671779 0.043699275 1.1458791e-21)
(0.85671779 0.043699275 -1.1459468e-21)
(0.85671779 0.043699275 0)
(0.85671779 0.043699275 -1.1460824e-21)
(0.85671779 0.043699275 1.1461502e-21)
(0.85671779 0.043699275 0)
(0.85671779 0.043699275 0)
(0.85671779 0.043699275 -2.3633015e-21)
(0.85671779 0.043699275 2.3634456e-21)
(0.85671779 0.043699275 0)
(0.85671779 0.043699275 0)
(0.85671779 0.043699275 0)
(0.85671779 0.043699275 -1.1820111e-21)
(0.85671779 0.043699275 1.1820832e-21)
(0.85671779 0.043699275 -1.1821553e-21)
(0.85671779 0.043699275 2.3644549e-21)
(0.85671779 0.043699275 -1.1822996e-21)
(0.85671779 0.043699275 -1.1823717e-21)
(0.85671779 0.043699275 1.1824439e-21)
(0.85671779 0.043699275 1.1825173e-21)
(0.85671779 0.043699275 -5.1276523e-21)
(0.85671779 0.043699275 -4.9627625e-21)
(0.85671779 0.043699275 4.9532923e-21)
(0.85671779 0.043699275 0)
(0.85671779 0.043699275 -4.9344599e-21)
(0.85671779 0.043699275 4.9250976e-21)
(0.85671779 0.043699275 4.9157702e-21)
(0.85671779 0.043699275 -4.9064783e-21)
(0.85671779 0.043699275 -1.5303816e-22)
(0.85671779 0.043699275 0)
(0.85671779 0.043699275 0)
(0.85671779 0.043699275 0)
(0.85671779 0.043699275 0)
(0.85671779 0.043699275 0)
(0.85671779 0.043699275 0)
(0.85671779 0.043699275 3.0503294e-22)
(0.85671779 0.043699275 0)
(0.85671779 0.043699275 0)
(0.85671779 0.043699275 -1.5257011e-22)
(0.85671779 0.043699275 0)
(0.85671779 0.043699275 -5.1679429e-21)
(0.85671779 0.043699275 1.520516e-22)
(0.85671779 0.043699275 0)
(0.85671779 0.043699275 3.0296734e-22)
(0.85671779 0.043699275 0)
(0.85671779 0.043699275 4.6730546e-35)
(0.85671779 0.043699275 -1.6538039e-24)
(0.85671779 0.043699275 1.5746627e-24)
(0.85671779 0.043699275 -1.2358616e-20)
(0.85671779 0.043699275 1.1818864e-20)
(0.85671779 0.043699275 0)
(0.85671779 0.043699275 1.0827145e-20)
(0.85671779 0.043699275 -1.3657438e-20)
(0.85671779 0.043699275 -1.3001948e-20)
(0.85671779 0.043699275 1.2353784e-20)
(0.85671779 0.043699275 4.63153e-23)
(0.85671779 0.043699275 0)
(0.85671779 0.043699275 -1.0812878e-20)
(0.85671779 0.043699275 1.3772107e-20)
(0.85671779 0.043699275 1.3102682e-20)
(0.85671779 0.043699275 1.2495319e-20)
(0.85671779 0.043699275 4.6647535e-23)
(0.85671779 0.043699275 -4.4668684e-23)
(0.85671779 0.043699275 0)
(0.85671779 0.043699275 0)
(0.85671779 0.043699275 -1.3206623e-20)
(0.85671779 0.043699275 2.118989e-33)
(0.85671779 0.043699275 1.2028048e-20)
(0.85671779 0.043699275 -1.160423e-20)
(0.85671779 0.043699275 1.1128864e-20)
(0.85671779 0.043699275 -1.7094486e-24)
(0.85671779 0.043699275 1.3313856e-20)
(0.85671779 0.043699275 1.2816451e-33)
(0.85671779 0.043699275 -4.7326499e-23)
(0.85671779 0.043699275 1.1639755e-20)
(0.85671779 0.043699275 -1.1116326e-20)
(0.85671779 0.043699275 1.4901943e-20)
(0.85671779 0.043699275 1.4124322e-20)
(0.85671779 0.043699275 -1.6381273e-24)
(0.85671779 0.043699275 -2.556632e-20)
(0.85671779 0.043699275 -2.4408804e-20)
(0.85671779 0.043699275 -1.1675782e-20)
(0.85671779 0.043699275 1.1278486e-20)
(0.85671779 0.043699275 -1.5036537e-20)
(0.85671779 0.043699275 -2.1348067e-33)
(0.85671779 0.043699275 -1.3528591e-20)
(0.85671779 0.043699275 1.2882073e-20)
(0.85671779 0.043699275 1.2246506e-20)
(0.85671779 0.043699275 4.5930656e-23)
(0.85671779 0.043699275 -1.1266793e-20)
(0.85671779 0.043699275 1.5173587e-20)
(0.85671779 0.043699275 -7.1814171e-21)
(0.85671779 0.043699275 1.3637763e-20)
(0.85671779 0.043699275 -6.5419798e-21)
(0.85671779 0.043699275 4.8382836e-23)
(0.85671779 0.043699275 5.9209439e-21)
(0.85671779 0.043699275 -5.6717815e-21)
(0.85671779 0.043699275 7.6565803e-21)
(0.85671779 0.043699275 -7.2456992e-21)
(0.85671779 0.043699275 -6.8760498e-21)
(0.85671779 0.043699275 6.5422859e-21)
(0.85671779 0.043699275 -4.8745498e-23)
(0.85671779 0.043699275 6.0099504e-21)
(0.85671779 0.043699275 5.7999236e-21)
(0.85671779 0.043699275 8.1315466e-21)
(0.85671779 0.043699275 -1.5455318e-20)
(0.85671779 0.043699275 1.7845025e-24)
(0.85671779 0.043699275 6.9316295e-21)
(0.85671779 0.043699275 0)
(0.85671779 0.043699275 0)
(0.85671779 0.043699275 -6.1002423e-21)
(0.85671779 0.043699275 8.9845981e-23)
(0.85671779 0.043699275 -8.2770707e-21)
(0.85671779 0.043699275 7.8000741e-21)
(0.85671779 0.043699275 -1.8003119e-24)
(0.85671779 0.043699275 1.7069236e-24)
(0.85671779 0.043699275 0)
(0.85671779 0.043699275 -4.9487394e-23)
(0.85671779 0.043699275 6.0973139e-21)
(0.85671779 0.043699275 5.880612e-21)
(0.85671779 0.043699275 -6.531408e-23)
(0.85671779 0.043699275 0)
(0.85671779 0.043699275 -7.4399865e-21)
(0.85671779 0.043699275 0)
(0.85671779 0.043699275 -5.2345868e-23)
(0.85671779 0.043699275 -6.3330938e-21)
(0.85671779 0.043699275 0)
(0.85671779 0.043699275 -1.1661399e-20)
(0.85671779 0.043699275 -6.5976725e-23)
(0.85671779 0.043699275 -7.9490515e-21)
(0.85671779 0.043699275 7.5052539e-21)
(0.85671779 0.043699275 7.1127512e-21)
(0.85671779 0.043699275 -5.2770635e-23)
(0.85671779 0.043699275 6.4322833e-21)
(0.85671779 0.043699275 6.1872561e-21)
(0.85671779 0.043699275 5.8718313e-21)
(0.85671779 0.043699275 0)
(0.85671779 0.043699275 8.0257036e-21)
(0.85671779 0.043699275 7.5754147e-21)
(0.85671779 0.043699275 -7.1722931e-21)
(0.85671779 0.043699275 0)
(0.85671779 0.043699275 0)
(0.85671779 0.043699275 -2.9801189e-34)
(0.85671779 0.043699275 9.23992e-23)
(0.85671779 0.043699275 7.1374567e-22)
(0.85671779 0.043699275 -9.5519792e-22)
(0.85671779 0.043699275 0)
(0.85671779 0.043699275 4.8117571e-22)
(0.85671779 0.043699275 -4.8298425e-22)
(0.85671779 0.043699275 5.5169936e-35)
(0.85671779 0.043699275 -2.5555321e-34)
(0.85671779 0.043699275 4.8849235e-22)
(0.85671779 0.043699275 -2.7284168e-21)
(0.85671779 0.043699275 1.9919931e-21)
(0.85671779 0.043699275 0)
(0.85671779 0.043699275 -2.5094417e-22)
(0.85671779 0.043699275 -7.5578437e-22)
(0.85671779 0.043699275 1.517519e-21)
(0.85671779 0.043699275 -5.0783873e-22)
(0.85671779 0.043699275 -2.5492684e-22)
(0.85671779 0.043699275 2.0641589e-21)
(0.85671779 0.043699275 -3.6124395e-35)
(0.85671779 0.043699275 -1.0404359e-21)
(0.85671779 0.043699275 0)
(0.85671779 0.043699275 -5.2446435e-22)
(0.85671779 0.043699275 7.899205e-22)
(0.85671779 0.043699275 0)
(0.85671779 0.043699275 0)
(0.85671779 0.043699275 -2.6658431e-22)
(0.85671779 0.043699275 -2.1507117e-21)
(0.85671779 0.043699275 1.0798743e-21)
(0.85671779 0.043699275 0)
(0.85671779 0.043699275 -1.089026e-21)
(0.85671779 0.043699275 1.0936602e-21)
(0.85671779 0.043699275 5.4916708e-22)
(0.85671779 0.043699275 2.0341095e-34)
(0.85671779 0.043699275 -8.3085209e-22)
(0.85671779 0.043699275 0)
(0.85671779 0.043699275 -2.7935903e-22)
(0.85671779 0.043699275 -2.2546876e-21)
(0.85671779 0.043699275 2.2646214e-21)
(0.85671779 0.043699275 -1.2794867e-21)
(0.85671779 0.043699275 0)
(0.85671779 0.043699275 1.4343468e-22)
(0.85671779 0.043699275 -1.4407796e-22)
(0.85671779 0.043699275 0)
(0.85671779 0.043699275 8.7229197e-22)
(0.85671779 0.043699275 1.727766e-34)
(0.85671779 0.043699275 -2.3583571e-21)
(0.85671779 0.043699275 1.1846138e-21)
(0.85671779 0.043699275 0)
(0.85671779 0.043699275 1.494545e-22)
(0.85671779 0.043699275 1.5015305e-22)
(0.85671779 0.043699275 -1.5085815e-22)
(0.85671779 0.043699275 7.5784955e-22)
(0.85671779 0.043699275 -3.0771488e-34)
(0.85671779 0.043699275 5.4143964e-34)
(0.85671779 0.043699275 -6.1498425e-22)
(0.85671779 0.043699275 1.3972307e-21)
(0.85671779 0.043699275 -1.248014e-21)
(0.85671779 0.043699275 -1.410867e-21)
(0.85671779 0.043699275 1.4177854e-21)
(0.85671779 0.043699275 -1.5830799e-22)
(0.85671779 0.043699275 0)
(0.85671779 0.043699275 0)
(0.85671779 0.043699275 0)
(0.85671779 0.043699275 0)
(0.85671779 0.043699275 0)
(0.85671779 0.043699275 -1.639817e-22)
(0.85671779 0.043699275 0)
(0.85671779 0.043699275 -1.3253843e-21)
(0.85671779 0.043699275 1.1657229e-21)
(0.85671779 0.043699275 -1.6739962e-22)
(0.85671779 0.043699275 1.3462118e-21)
(0.85671779 0.043699275 -1.8607882e-21)
(0.85671779 0.043699275 -2.0428414e-34)
(0.85671779 0.043699275 1.6057682e-34)
(0.85671779 0.043699275 1.999821e-34)
(0.85671779 0.043699275 -2.606352e-21)
(0.85671779 0.043699275 1.3976138e-21)
(0.85671779 0.043699275 3.900368e-36)
(0.85671779 0.043699275 1.7662271e-22)
(0.85671779 0.043699275 1.7759913e-22)
(0.85671779 0.043699275 -1.2501049e-21)
(0.85671779 0.043699275 1.0775084e-21)
(0.85671779 0.043699275 1.8059427e-22)
(0.85671779 0.043699275 7.2646093e-22)
(0.85671779 0.043699275 1.1086271e-21)
(0.85671779 0.043699275 -2.973441e-21)
(0.85671779 0.043699275 2.9907419e-21)
(0.85671779 0.043699275 -1.692138e-21)
(0.85671779 0.043699275 -1.8912218e-22)
(0.85671779 0.043699275 -3.8048428e-22)
(0.85671779 0.043699275 1.9137543e-22)
(0.85671779 0.043699275 -3.8504463e-22)
(0.85671779 0.043699275 -7.7473212e-22)
(0.85671779 0.043699275 1.9727647e-22)
(0.85671779 0.043699275 1.984954e-22)
(0.85671779 0.043699275 -1.1983769e-21)
(0.85671779 0.043699275 1.6078321e-21)
(0.85671779 0.043699275 4.0448854e-22)
(0.85671779 0.043699275 2.0352555e-21)
(0.85671779 0.043699275 -2.4578782e-21)
(0.85671779 0.043699275 1.8552371e-21)
(0.85671779 0.043699275 -6.2240612e-22)
(0.85671779 0.043699275 -1.6927788e-21)
(0.85671779 0.043699275 -2.130003e-22)
(0.85671779 0.043699275 1.7153759e-21)
(0.85671779 0.043699275 -1.7269022e-21)
(0.85671779 0.043699275 1.5212613e-21)
(0.85671779 0.043699275 -2.1880321e-22)
(0.85671779 0.043699275 0)
(0.85671779 0.043699275 -1.1091244e-21)
(0.85671779 0.043699275 -1.1506293e-33)
(0.85671779 0.043699275 -3.6766751e-21)
(0.85671779 0.043699275 3.7031639e-21)
(0.85671779 0.043699275 -2.0981459e-21)
(0.85671779 0.043699275 2.3483143e-22)
(0.85671779 0.043699275 1.6559245e-21)
(0.85671779 0.043699275 -1.9065242e-21)
(0.85671779 0.043699275 2.4009664e-22)
(0.85671779 0.043699275 0)
(0.85671779 0.043699275 2.2451244e-21)
(0.85671779 0.043699275 -4.2739786e-21)
(0.85671779 0.043699275 2.2805419e-21)
(0.85671779 0.043699275 -2.5540811e-22)
(0.85671779 0.043699275 5.1490993e-22)
(0.85671779 0.043699275 0)
(0.85671763 0.043699018 -4.2760027e-23)
(0.85671779 0.043699274 -2.4477235e-32)
(0.85671779 0.043699274 -2.4797034e-22)
(0.85671779 0.043699274 8.3980191e-23)
(0.85671779 0.043699272 -4.2673334e-23)
(0.85671779 0.043699271 4.3379167e-23)
(0.85671779 0.043699275 5.0946217e-37)
(0.85671779 0.043699275 -3.104485e-22)
(0.85671779 0.043699275 -3.1511115e-22)
(0.85671779 0.043699275 4.7987399e-22)
(0.85671779 0.043699275 -3.6132697e-34)
(0.85671779 0.043699275 -4.88803e-34)
(0.85671779 0.043699275 -9.2194253e-22)
(0.85671779 0.043699275 1.7034791e-22)
(0.85671779 0.043699275 -7.7921897e-22)
(0.85671779 0.043699275 0)
(0.85671779 0.043699275 2.9259119e-22)
(0.85671779 0.043699275 -5.9345872e-22)
(0.85671779 0.043699275 -3.0098619e-22)
(0.85671779 0.043699275 3.0536694e-22)
(0.85671779 0.043699275 3.5091334e-36)
(0.85671779 0.043699275 -6.2904492e-22)
(0.85671779 0.043699275 3.1930923e-22)
(0.85671779 0.043699275 -8.1060987e-22)
(0.85671779 0.043699275 1.6466679e-22)
(0.85671779 0.043699275 -1.6729278e-22)
(0.85671779 0.043699275 5.1001164e-22)
(0.85671779 0.043699275 0)
(0.85671779 0.043699275 1.0541911e-21)
(0.85671779 0.043699275 0)
(0.85671779 0.043699275 5.9241445e-22)
(0.85671779 0.043699275 -9.0134716e-22)
(0.85671779 0.043699275 0)
(0.85671779 0.043699275 -3.0930777e-22)
(0.85671779 0.043699275 6.2787191e-22)
(0.85671779 0.043699275 6.3740951e-22)
(0.85671779 0.043699275 -6.4724134e-22)
(0.85671779 0.043699275 9.8607182e-22)
(0.85671779 0.043699275 -3.3392193e-22)
(0.85671779 0.043699275 -1.0197908e-34)
(0.85671779 0.043699275 2.5867542e-22)
(0.85671779 0.043699275 -1.7533256e-22)
(0.85671779 0.043699275 -1.3373462e-22)
(0.85671779 0.043699275 -3.1744319e-22)
(0.85671779 0.043699275 5.9982751e-22)
(0.85671779 0.043699275 2.6280839e-35)
(0.85671779 0.043699275 6.1748107e-22)
(0.85671779 0.043699275 5.9002179e-35)
(0.85671779 0.043699275 -1.1993477e-34)
(0.85671779 0.043699275 -3.2299979e-22)
(0.85671779 0.043699275 3.2805014e-22)
(0.85671779 0.043699275 -3.3326094e-22)
(0.85671779 0.043699275 6.7727989e-22)
(0.85671779 0.043699275 3.4419543e-22)
(0.85671779 0.043699275 -3.4993623e-22)
(0.85671779 0.043699275 3.558718e-22)
(0.85671779 0.043699275 -3.6201219e-22)
(0.85671779 0.043699275 3.6836812e-22)
(0.85671779 0.043699275 3.037142e-22)
(0.85671779 0.043699275 -6.1635078e-22)
(0.85671779 0.043699275 -6.2553901e-22)
(0.85671779 0.043699275 6.3500533e-22)
(0.85671779 0.043699275 -3.5648346e-35)
(0.85671779 0.043699275 -6.5482432e-22)
(0.85671779 0.043699275 0)
(0.85671779 0.043699275 3.3796014e-22)
(0.85671779 0.043699275 -3.4349316e-22)
(0.85671779 0.043699275 -1.7460519e-22)
(0.85671779 0.043699275 -2.6634086e-22)
(0.85671779 0.043699275 -3.6123545e-22)
(0.85671779 0.043699275 -3.2161847e-22)
(0.85671779 0.043699275 4.6764762e-23)
(0.85671779 0.043699275 6.1522444e-22)
(0.85671779 0.043699275 -6.2437905e-22)
(0.85671779 0.043699275 0)
(0.85671779 0.043699275 -3.2176514e-22)
(0.85671779 0.043699275 6.5355329e-22)
(0.85671779 0.043699275 -6.6389349e-22)
(0.85671779 0.043699275 -1.8910202e-34)
(0.85671779 0.043699275 5.1419067e-22)
(0.85671779 0.043699275 -1.7424377e-22)
(0.85671779 0.043699275 5.3156047e-22)
(0.85671779 0.043699275 -1.80231e-22)
(0.85671779 0.043699275 4.5845402e-22)
(0.85671779 0.043699275 2.799665e-22)
(0.85671779 0.043699275 -3.8005042e-22)
(0.85671779 0.043699275 7.7902898e-22)
(0.85671779 0.043699275 -6.3261919e-22)
(0.85671779 0.043699275 -1.6057567e-22)
(0.85671779 0.043699275 -1.630718e-22)
(0.85671779 0.043699275 1.6564677e-22)
(0.85671779 0.043699275 0)
(0.85671779 0.043699275 -1.7104861e-22)
(0.85671779 0.043699275 -1.7388384e-22)
(0.85671779 0.043699275 -1.7681464e-22)
(0.85671779 0.043699275 3.5969188e-22)
(0.85671779 0.043699275 -2.7447447e-22)
(0.85671779 0.043699275 9.3115704e-23)
(0.85671779 0.043699275 1.8959725e-22)
(0.85671779 0.043699275 1.9308695e-22)
(0.85671779 0.043699275 4.7357449e-22)
(0.85671779 0.043699275 -4.8080983e-22)
(0.85671779 0.043699275 3.2551301e-22)
(0.85671779 0.043699275 -1.6532145e-22)
(0.85671779 0.043699275 5.0390557e-22)
(0.85671779 0.043699275 -3.4140348e-22)
(0.85671779 0.043699275 -1.867182e-34)
(0.85671779 0.043699275 3.5288804e-22)
(0.85671779 0.043699275 3.5892502e-22)
(0.85671779 0.043699275 2.8866084e-35)
(0.85671779 0.043699275 -1.858203e-22)
(0.85671779 0.043699275 9.4585585e-23)
(0.85671779 0.043699275 -3.3712895e-22)
(0.85671779 0.043699275 2.4531122e-22)
(0.85671779 0.043699275 -8.5957036e-36)
(0.85671779 0.043699275 -8.1221211e-22)
(0.85671779 0.043699275 -8.2498697e-23)
(0.85671779 0.043699275 -2.5145103e-22)
(0.85671779 0.043699275 4.2589069e-22)
(0.85671779 0.043699275 -2.5975262e-22)
(0.85671779 0.043699275 5.2822486e-22)
(0.85671779 0.043699275 -3.5816145e-22)
(0.85671779 0.043699275 9.109545e-23)
(0.85671779 0.043699275 2.7811652e-22)
(0.85585186 0.042954036 1.9116791e-25)
(0.85492778 0.042354086 2.8867353e-25)
(0.85363981 0.041750536 2.083975e-22)
(0.85236671 0.041518552 -1.2249836e-21)
(0.8451464 0.037855988 -1.0223774e-21)
(0.85173031 0.041955513 7.9766992e-22)
(0.84350169 0.039088593 -8.0981928e-22)
(0.85220839 0.042922413 3.9342339e-22)
(0.84458839 0.041694121 0)
(0.85362728 0.043834364 1.1617816e-21)
(0.84807183 0.044174265 -3.851191e-22)
(0.83910863 0.045709404 4.0411428e-22)
(0.85520119 0.044190645 -7.6156185e-22)
(0.85212913 0.045227674 -1.1497414e-21)
(0.84682922 0.047943952 -7.6751078e-22)
(0.85624274 0.044074083 -3.2750651e-25)
(0.85506449 0.044984893 7.5594555e-22)
(0.85279355 0.047442048 -7.6720118e-22)
(0.85333951 0.051764609 2.5375826e-21)
(0.85510408 0.046832103 -1.3738757e-24)
(0.85605917 0.044691529 -2.2077561e-21)
(0.85653041 0.043952808 2.0692157e-21)
(0.85413639 0.051395746 0)
(0.85552606 0.046594517 -2.3573777e-21)
(0.85624258 0.044578587 2.1994025e-21)
(0.85658477 0.04391929 0)
(0.85501608 0.051261963 -4.9389974e-24)
(0.85599115 0.046512779 9.4028889e-21)
(0.85644484 0.044542583 0)
(0.85664531 0.0439093 4.1141767e-21)
(0.85642371 0.046392958 -4.6815539e-21)
(0.8566318 0.044491136 -6.4107139e-24)
(0.85670089 0.043895827 -8.2059059e-21)
(0.85683981 0.046284304 4.6765214e-21)
(0.85681166 0.044444072 0)
(0.85675395 0.043883257 8.1878017e-21)
(0.85723415 0.046173507 -4.6624647e-21)
(0.85698155 0.044396961 0)
(0.8568032 0.043870067 -4.0837761e-21)
(0.85760566 0.046065985 0)
(0.8571393 0.044353118 0)
(0.85684799 0.043856276 0)
(0.85795737 0.045957048 -4.5299118e-24)
(0.85728389 0.044313578 2.1172361e-24)
(0.85688892 0.043842302 1.9846753e-24)
(0.85830216 0.045837406 0)
(0.85741726 0.044278891 -4.3223006e-21)
(0.85692648 0.043828949 0)
(0.85866451 0.045693147 4.5063127e-24)
(0.85754449 0.044247454 -4.8080795e-24)
(0.85696052 0.043817005 0)
(0.85907509 0.04549653 4.6020429e-21)
(0.85767524 0.044210304 4.302086e-21)
(0.85699218 0.043806273 4.0363603e-21)
(0.85954863 0.045183991 -4.5988212e-21)
(0.85782205 0.044140654 0)
(0.8570241 0.043792929 -8.049086e-21)
(0.86006074 0.044709006 0)
(0.85798802 0.044010189 0)
(0.85705876 0.043768729 8.029646e-21)
(0.8605267 0.044249863 0)
(0.85814858 0.043871552 0)
(0.85709404 0.043739623 -4.0054089e-21)
(0.85671764 0.043699135 0)
(0.85671717 0.043698702 1.4473699e-22)
(0.85671571 0.043697481 -3.5766988e-28)
(0.85671134 0.043694007 -4.3575878e-22)
(0.85669933 0.043685281 -7.2752007e-23)
(0.85667114 0.043667034 2.1865898e-22)
(0.85661675 0.043636897 0)
(0.85653499 0.043600683 0)
(0.85644612 0.043575979 -3.5259901e-25)
(0.85639359 0.043583121 6.6062312e-22)
(0.85641654 0.043624282 -5.882717e-22)
(0.85650958 0.043675861 -7.3435865e-23)
(0.85661847 0.04370524 0)
(0.85668839 0.043708896 7.3949055e-23)
(0.85671779 0.043699273 0)
(0.85671778 0.043699266 -7.4157757e-23)
(0.85671775 0.043699247 0)
(0.85671768 0.043699192 -2.9771848e-22)
(0.85671747 0.043699055 3.7283094e-22)
(0.85671697 0.043698765 7.4702039e-23)
(0.85671598 0.04369827 2.9936418e-22)
(0.85671443 0.043697639 -8.9975028e-22)
(0.85671268 0.043697144 1.2769952e-21)
(0.85671156 0.043697149 -6.7730374e-22)
(0.85671192 0.043697756 0)
(0.85671373 0.043697822 0)
(0.85671588 0.043698454 0)
(0.85671722 0.043699362 -7.5818482e-23)
(0.85671779 0.043699275 5.7174759e-33)
(0.85671779 0.043699275 1.5207652e-22)
(0.85671779 0.043699275 -1.5236183e-22)
(0.85671779 0.043699274 -7.6324104e-23)
(0.85671778 0.043699272 -3.0587133e-22)
(0.85671778 0.043699267 3.0644841e-22)
(0.85671776 0.043699259 7.6756919e-23)
(0.85671773 0.043699249 0)
(0.8567177 0.043699241 0)
(0.85671768 0.04369924 -7.7194673e-23)
(0.85671769 0.043699249 0)
(0.85671772 0.04369926 0)
(0.85671776 0.043699254 0)
(0.85671778 0.043699255 7.7786074e-23)
(0.85671779 0.043699275 -7.7867033e-23)
(0.85671779 0.043699275 7.8016588e-23)
(0.85671779 0.043699275 1.5633354e-22)
(0.85671779 0.043699275 -3.9158765e-22)
(0.85671779 0.043699275 3.1387549e-22)
(0.85671779 0.043699275 0)
(0.85671779 0.043699275 -1.5754664e-22)
(0.85671779 0.043699275 0)
(0.85671779 0.043699274 0)
(0.85671779 0.043699274 7.9234441e-23)
(0.85671779 0.043699275 7.9389355e-23)
(0.85671779 0.043699275 0)
(0.85671779 0.043699275 -5.5790702e-22)
(0.85671779 0.043699275 6.3886116e-22)
(0.85671779 0.043699275 -7.994297e-23)
(0.85671779 0.043699275 2.4030183e-22)
(0.85671779 0.043699275 -1.6051786e-22)
(0.85671779 0.043699275 3.216715e-22)
(0.85671779 0.043699275 -6.4461963e-22)
(0.85671779 0.043699275 3.2295066e-22)
(0.85671779 0.043699275 8.0898516e-23)
(0.85671779 0.043699275 6.4848009e-22)
(0.85671779 0.043699275 -2.6114594e-33)
(0.85671779 0.043699275 -6.510795e-22)
(0.85671779 0.043699275 5.7083867e-22)
(0.85671779 0.043699275 -6.5369985e-22)
(0.85671779 0.043699275 -8.1877241e-23)
(0.85671779 0.043699275 -8.2042575e-23)
(0.85671779 0.043699275 -1.2319894e-22)
(0.85671779 0.043699275 8.2299028e-23)
(0.85671779 0.043699275 1.2369925e-22)
(0.85671779 0.043699275 -4.9580391e-22)
(0.85671779 0.043699275 1.002764e-34)
(0.85671779 0.043699275 3.7337255e-22)
(0.85671779 0.043699275 0)
(0.85671779 0.043699275 -4.1656073e-23)
(0.85671779 0.043699275 -4.1741714e-23)
(0.85671779 0.043699275 0)
(0.85671779 0.043699275 4.1914058e-23)
(0.85671779 0.043699275 0)
(0.85671779 0.043699275 -7.1549313e-22)
(0.85671779 0.043699275 7.1697861e-22)
(0.85671779 0.043699275 8.4445612e-23)
(0.85671779 0.043699275 0)
(0.85671779 0.043699275 8.479824e-23)
(0.85671779 0.043699275 3.3990278e-22)
(0.85671779 0.043699275 -6.386542e-22)
(0.85671779 0.043699275 2.9866495e-22)
(0.85671779 0.043699275 4.2756272e-23)
(0.85671779 0.043699275 7.7123701e-22)
(0.85671779 0.043699275 -6.4405667e-22)
(0.85671779 0.043699275 -4.3028107e-23)
(0.85671779 0.043699275 -4.3119491e-23)
(0.85671779 0.043699275 0)
(0.85671779 0.043699275 4.3303423e-23)
(0.85671779 0.043699275 -4.3395936e-23)
(0.85671779 0.043699275 -1.3033897e-22)
(0.85671779 0.043699275 2.6123673e-22)
(0.85671779 0.043699275 -4.3633025e-23)
(0.85671779 0.043699275 2.1863498e-22)
(0.85671779 0.043699275 -3.9439236e-22)
(0.85671779 0.043699275 0)
(0.85671779 0.043699275 -4.4011358e-23)
(0.85671779 0.043699275 2.4440214e-35)
(0.85671779 0.043699275 7.0724794e-22)
(0.85671779 0.043699275 -6.6449166e-22)
(0.85671779 0.043699275 0)
(0.85671779 0.043699275 -4.4493603e-23)
(0.85671779 0.043699275 -7.1346115e-22)
(0.85671779 0.043699275 7.1503091e-22)
(0.85671779 0.043699275 -8.948573e-23)
(0.85671779 0.043699275 2.6904985e-22)
(0.85671779 0.043699275 -1.797636e-22)
(0.85671779 0.043699275 -4.0536536e-22)
(0.85671779 0.043699275 4.1616563e-35)
(0.85671779 0.043699275 3.6193058e-22)
(0.85671779 0.043699275 0)
(0.85671779 0.043699275 -4.5443847e-23)
(0.85671779 0.043699275 0)
(0.85671779 0.043699275 -7.3037106e-22)
(0.85671779 0.043699275 7.3201687e-22)
(0.85671779 0.043699275 -6.8781576e-22)
(0.85671779 0.043699275 7.3533082e-22)
(0.85671779 0.043699275 0)
(0.85671779 0.043699275 -1.1529793e-22)
(0.85671779 0.043699275 9.2448247e-23)
(0.85671779 0.043699275 1.6215361e-22)
(0.85671779 0.043699275 -2.0896003e-22)
(0.85671779 0.043699275 -3.7233607e-22)
(0.85671779 0.043699275 3.4986708e-22)
(0.85671779 0.043699275 0)
(0.85671779 0.043699275 -7.732609e-22)
(0.85671779 0.043699275 1.4796407e-21)
(0.85671779 0.043699275 -7.2976551e-22)
(0.85671779 0.043699275 -2.3595539e-23)
(0.85671779 0.043699275 0)
(0.85671779 0.043699275 2.3705738e-23)
(0.85671779 0.043699275 2.3761209e-23)
(0.85671779 0.043699275 0)
(0.85671779 0.043699275 0)
(0.85671779 0.043699275 0)
(0.85671779 0.043699275 0)
(0.85671779 0.043699275 0)
(0.85671779 0.043699275 1.8006943e-21)
(0.85671779 0.043699275 0)
(0.85671779 0.043699275 0)
(0.85671795 0.043699285 0)
(0.85673084 0.043700037 0)
(0.85671779 0.043699275 0)
(0.85671779 0.043699275 0)
(0.85671779 0.043699275 0)
(0.85671779 0.043699275 0)
(0.85671779 0.043699275 0)
(0.85671779 0.043699275 -2.5996065e-35)
(0.85671779 0.043699275 0)
(0.85671779 0.043699275 0)
(0.85671794 0.043699297 0)
(0.85673 0.04370083 0)
(0.85671779 0.043699275 0)
(0.85671779 0.043699275 0)
(0.85671779 0.043699275 0)
(0.85671779 0.043699275 0)
(0.85671779 0.043699275 0)
(0.85671779 0.043699275 -9.0083487e-22)
(0.85671779 0.043699275 0)
(0.85671779 0.043699276 0)
(0.85671792 0.043699304 0)
(0.85672887 0.043701217 0)
(0.85671779 0.043699275 0)
(0.85671779 0.043699275 0)
(0.85671779 0.043699275 0)
(0.85671779 0.043699275 0)
(0.85671779 0.043699275 0)
(0.85671779 0.043699275 0)
(0.85671779 0.043699275 0)
(0.85671779 0.043699276 0)
(0.8567179 0.043699312 0)
(0.85672763 0.043701586 0)
(0.85671779 0.043699275 0)
(0.85671779 0.043699275 0)
(0.85671779 0.043699275 0)
(0.85671779 0.043699275 0)
(0.85671779 0.043699275 0)
(0.85671779 0.043699275 0)
(0.85671779 0.043699275 0)
(0.85671779 0.043699276 0)
(0.85671787 0.043699319 0)
(0.85672622 0.043702027 0)
(0.85671779 0.043699275 0)
(0.85671779 0.043699275 0)
(0.85671779 0.043699275 0)
(0.85671779 0.043699275 0)
(0.85671779 0.043699275 0)
(0.85671779 0.043699275 -4.5079464e-22)
(0.85671779 0.043699275 0)
(0.85671779 0.043699276 0)
(0.85671784 0.043699326 0)
(0.85672461 0.043702517 0)
(0.85671779 0.043699275 0)
(0.85671779 0.043699275 0)
(0.85671779 0.043699275 0)
(0.85671779 0.043699275 0)
(0.85671779 0.043699275 0)
(0.85671779 0.043699275 9.0184103e-22)
(0.85671779 0.043699275 0)
(0.85671779 0.043699276 0)
(0.8567178 0.043699333 0)
(0.85672279 0.043702979 0)
(0.85671779 0.043699275 0)
(0.85671779 0.043699275 0)
(0.85671779 0.043699275 0)
(0.85671779 0.043699275 0)
(0.85671779 0.043699275 0)
(0.85671779 0.043699275 -4.5104643e-22)
(0.85671779 0.043699275 0)
(0.85671779 0.043699275 0)
(0.85671775 0.043699337 0)
(0.85672081 0.043703402 0)
(0.85671779 0.043699275 0)
(0.85671779 0.043699275 0)
(0.85671779 0.043699275 0)
(0.85671779 0.043699275 0)
(0.85671779 0.043699275 0)
(0.85671779 0.043699275 0)
(0.85671779 0.043699275 0)
(0.85671779 0.043699275 0)
(0.85671768 0.043699326 0)
(0.8567187 0.04370377 0)
(0.85671779 0.043699275 0)
(0.85671779 0.043699275 -1.2576613e-21)
(0.85671779 0.043699275 0)
(0.85671779 0.043699275 0)
(0.85671779 0.043699275 -1.6280043e-21)
(0.85671779 0.043699275 1.8051942e-21)
(0.85671779 0.043699275 0)
(0.85671779 0.043699275 0)
(0.85671763 0.043699305 -2.6803527e-21)
(0.85671634 0.043704038 0)
(0.85671779 0.043699275 0)
(0.85671779 0.043699275 1.2579063e-21)
(0.85671779 0.043699275 0)
(0.85671779 0.043699275 0)
(0.85671779 0.043699275 1.6284148e-21)
(0.85671779 0.043699275 -3.6113977e-21)
(0.85671779 0.043699275 0)
(0.85671779 0.043699275 0)
(0.85671766 0.043699302 2.6814651e-21)
(0.85671368 0.043704102 0)
(0.85671779 0.043699275 0)
(0.85671779 0.043699275 0)
(0.85671779 0.043699275 0)
(0.85671779 0.043699275 0)
(0.85671779 0.043699275 0)
(0.85671779 0.043699275 3.6124075e-21)
(0.85671779 0.043699275 0)
(0.85671779 0.043699274 0)
(0.85671762 0.043699304 0)
(0.85671096 0.043703931 0)
(0.85671779 0.043699275 0)
(0.85671779 0.043699275 0)
(0.85671779 0.043699275 0)
(0.85671779 0.043699275 0)
(0.85671779 0.043699275 0)
(0.85671779 0.043699275 -3.6134173e-21)
(0.85671779 0.043699275 0)
(0.85671779 0.043699274 0)
(0.85671758 0.043699285 0)
(0.85670806 0.04370336 0)
(0.85671779 0.043699275 0)
(0.85671779 0.043699275 0)
(0.85671779 0.043699275 0)
(0.85671779 0.043699275 0)
(0.85671779 0.043699275 0)
(0.85671779 0.043699275 1.8072302e-21)
(0.85671779 0.043699275 0)