/*--------------------------------*- C++ -*----------------------------------*\
| =========                 |                                                 |
| \\      /  F ield         | OpenFOAM: The Open Source CFD Toolbox           |
|  \\    /   O peration     | Version:  2206                                  |
|   \\  /    A nd           | Website:  www.openfoam.com                      |
|    \\/     M anipulation  |                                                 |
\*---------------------------------------------------------------------------*/
FoamFile
{
    version     2.0;
    format      ascii;
    arch        "LSB;label=32;scalar=64";
    class       volScalarField;
    location    "0";
    object      alphat;
}
// * * * * * * * * * * * * * * * * * * * * * * * * * * * * * * * * * * * * * //

dimensions      [1 -1 -1 0 0 0 0];

internalField   nonuniform List<scalar> 
19794
(
1.3040652
1.4195474
1.0508762
1.4068832
1.1571567
0.83423138
1.3617577
1.1606282
0.91882886
0.72507631
1.2701201
1.1362741
0.94290155
0.78836585
0.69665135
1.1684236
1.0816437
0.95851452
0.8277464
0.76302854
0.69952092
1.0763503
1.0265311
0.96157374
0.8738915
0.82381602
0.79292629
0.71760613
1.0077264
0.98322476
0.9634317
0.91558951
0.90200465
0.89190496
0.86996463
0.75474999
0.96594525
0.95583565
0.96488887
0.94858111
0.97713413
1.0152786
1.0383359
1.0038536
0.82224728
0.95089122
0.94237889
0.96553473
0.96867705
1.0336442
1.1299661
1.2327792
1.2629982
1.197483
0.92896021
0.96061257
0.94130982
0.96523682
0.97682054
1.0643744
1.2110326
1.4037233
1.5342742
1.5460959
1.4349332
1.0733538
0.99123627
0.95221002
0.96532887
0.97627992
1.0728034
1.2499131
1.5197405
1.7584368
1.8802443
1.8510192
1.6884401
1.2430071
1.0366351
0.97465116
0.96781091
0.97029864
1.0662432
1.2540079
1.5741148
1.9061308
2.1440608
2.2252142
2.1438008
1.9298233
1.4192175
1.0895495
1.0064272
0.97455653
0.96172993
1.0502107
1.2356801
1.5793449
1.9764653
2.3157
2.5127422
2.5381918
2.3999687
2.1366102
1.5822385
1.1435619
1.0435434
0.98593344
0.95316506
1.0282907
1.2035334
1.5531717
1.9872186
2.4003204
2.6989988
2.8377965
2.8008632
2.6039331
2.2931899
1.7148102
1.1943053
1.081654
1.0005075
0.94624884
1.0036812
1.1621562
1.5077328
1.9604296
2.4197149
2.7931821
3.0321505
3.1056052
3.0033333
2.7465813
2.3899569
1.8038413
1.2395097
1.1173857
1.0159882
0.94115477
0.97926367
1.1153396
1.4487256
1.9112278
2.3990713
2.8197719
3.1321259
3.304303
3.3101229
3.1408116
2.823321
2.422138
1.8409043
1.2784777
1.1487977
1.0303922
0.93709121
0.95669002
1.0674231
1.3797719
1.8463562
2.3560679
2.8064658
3.1638533
3.4074356
3.5117953
3.449402
3.2116604
2.8328394
2.3888752
1.8222059
1.311436
1.175183
1.0426027
0.9333152
0.93631713
1.0220614
1.3054312
1.7686708
2.2987522
2.7732852
3.1572067
3.4420726
3.6167115
3.6545714
3.5237655
3.2163507
2.776403
2.2926444
1.7484767
1.3389523
1.1966139
1.052288
0.92968261
0.91811714
0.98124908
1.2306208
1.6811824
2.2296461
2.7297112
3.1344277
3.4402148
3.6523963
3.7610658
3.7343963
3.5348933
3.1569474
2.6575091
2.1389709
1.6250431
1.3615641
1.2134758
1.0595558
0.92650118
0.90239971
0.94585109
1.1592397
1.5875536
2.1501187
2.6783476
3.1064152
3.4263536
3.6531214
3.7964697
3.8432763
3.7540003
3.4853968
3.0369007
2.4817737
1.9363929
1.4622635
1.3796663
1.2261463
1.0646098
0.92411639
0.88972791
0.91646943
1.0940218
1.4912921
2.0616271
2.6194468
3.0759725
3.4128378
3.6458239
3.797612
3.8776616
3.8669399
3.7166836
3.3786511
2.8610215
2.2569694
1.6967437
1.2763133
1.3935751
1.2348811
1.0675411
0.92259771
0.88044568
0.89356662
1.0370731
1.3955628
1.9655253
2.5527078
3.0424996
3.4027099
3.6444164
3.7941726
3.8772581
3.900166
3.836087
3.6261482
3.2187714
2.6355759
1.9932307
1.4359002
1.0894391
1.4036437
1.2398687
1.0683001
0.92165358
0.87436335
0.87708014
0.98993753
1.3035969
1.863053
2.4775563
3.0042959
3.3946345
3.6522429
3.8018272
3.8749108
3.8965678
3.8686061
3.7550108
3.4864392
3.0106754
2.368476
1.7035122
1.1747805
0.92734505
1.4103324
1.2413423
1.0668018
0.92076254
0.87078864
0.86622023
0.95314202
1.2187655
1.7558389
2.3932534
2.9592693
3.3856997
3.6673201
3.8243251
3.8883006
3.8926778
3.8605737
3.7878585
3.6281847
3.30194
2.7602112
2.0695879
1.4044822
0.93852541
0.81297036
1.4141974
1.2396577
1.0630589
0.91940839
0.86881232
0.85968863
0.92596745
1.143987
1.6463568
2.2993422
2.9052174
3.3725244
3.6856548
3.8591301
3.9217263
3.9084481
3.852788
3.7746681
3.662979
3.4602134
3.0773969
2.47435
1.7512499
1.1174494
0.75052068
0.7624051
1.4158228
1.2352945
1.0572504
0.91726297
0.86763441
0.85611904
0.90680071
1.081026
1.5378909
2.1961644
2.8402588
3.3517372
3.7027238
3.9012857
3.9722052
3.9488929
3.8677575
3.7610367
3.6444987
3.4991367
3.2557833
2.817973
2.1614506
1.4291237
0.86680497
0.62397356
0.78929889
1.4157464
1.2288006
1.049702
0.91423426
0.86673914
0.85443322
0.89378472
1.0302672
1.434087
2.0851141
2.7632928
3.3204325
3.7141505
3.9452557
4.033938
4.010695
3.9113762
3.7723773
3.6236046
3.4758776
3.3015256
3.0196082
2.5293362
1.8316691
1.1230983
0.67292341
0.56121554
0.91315823
1.4144214
1.2207151
1.0408128
0.91040237
0.86587512
0.85394263
0.88531572
0.99100902
1.338386
1.9685868
2.6742439
3.2765822
3.7161991
3.9857828
4.1005057
4.0873339
3.9801033
3.815584
3.6289943
3.4469843
3.2747018
3.0752567
2.7563702
2.2177896
1.4976658
0.85616983
0.54415843
0.56276152
1.1538065
1.4121928
1.211516
1.0309781
0.90592014
0.86493658
0.85423827
0.88018912
0.96192551
1.2535582
1.8497409
2.5740443
3.2192253
3.706149
4.0184243
4.1658918
4.1716446
4.0668169
3.8870033
3.6686389
3.4447146
3.2378295
3.0468116
2.8252196
2.4706659
1.8904937
1.1758043
0.64792108
0.47847403
0.63714674
1.4032928
1.4093127
1.2016064
1.02054
0.90093858
0.86385856
0.85502909
0.87749897
0.94139641
1.1813775
1.7321821
2.4644538
3.1484182
3.6824339
4.0399024
4.2250566
4.2569797
4.1637477
3.9790288
3.7388744
3.4782402
3.2269229
3.0027819
2.7978044
2.5559176
2.1669757
1.5559495
0.88679671
0.50661244
0.47340183
0.76022601
1.5625052
1.4059507
1.1913029
1.0097736
0.89557526
0.86257086
0.85604842
0.87649752
0.92768309
1.1224374
1.6195974
2.3478534
3.0650396
3.6445552
4.0482021
4.2742703
4.3378131
4.2637541
4.0834323
3.8317279
3.5439399
3.2524721
2.9830806
2.7482676
2.5328109
2.2712884
1.8496931
1.2252591
0.65226896
0.42884127
0.51933867
0.86653711
1.6696965
1.4022096
1.1808553
0.99889776
0.88991595
0.86099912
0.85704138
0.87653431
0.91906078
1.0761535
1.515316
2.2270614
2.9705758
3.5928675
4.0424495
4.3111822
4.4100608
4.3609384
4.1927212
3.9386608
3.6336065
3.3109476
2.9995477
2.7204261
2.4802224
2.2562348
1.9745235
1.5233227
0.91501175
0.4844303
0.4115724
0.57528071
0.9624328
1.7385984
1.398144
1.170452
0.98808874
0.88402815
0.85908265
0.85778944
0.87706597
0.91396267
1.0410106
1.4218676
2.1051472
2.8669556
3.5283495
4.0226707
4.3346604
4.4711273
4.4509563
4.3007443
4.0519785
3.7385435
3.3940418
3.0488736
2.7275174
2.4456828
2.2037826
1.9714549
1.6678925
1.1936692
0.64809615
0.40008932
0.42331314
0.63688825
1.0420029
1.7828374
1.3937839
1.1602348
0.9774832
0.87797366
0.85679015
0.85813283
0.87768002
0.91109876
1.0149865
1.3406779
1.9852037
2.7564134
3.4524195
3.9895386
4.3445185
4.5197108
4.531047
4.4029874
4.1653957
3.8510073
3.4930623
3.1227585
2.7665517
2.4438763
2.1647156
1.9229353
1.6804635
1.3528698
0.87173328
0.48141026
0.36937463
0.4483066
0.69589187
1.1051829
1.8118898
1.3891509
1.1503068
0.96719267
0.8718172
0.85412458
0.85797807
0.87809828
0.9095042
0.99598724
1.2720191
1.8700849
2.6413574
3.3667969
3.9441674
4.3412324
4.5554916
4.5998085
4.4965929
4.2743128
3.9646989
3.6003733
3.2126925
2.8294157
2.4722835
2.155205
1.8821565
1.6400708
1.3836504
1.0310066
0.63295111
0.40100142
0.35927754
0.47900291
0.74802418
1.1544158
1.8315698
1.3842315
1.1407377
0.9573012
0.86562784
0.85112085
0.85729237
0.87815892
0.90851533
0.98214787
1.2152165
1.7621664
2.5242316
3.273384
3.8879569
4.3257104
4.5788173
4.6568489
4.580115
4.3758335
4.0750113
3.7097838
3.3113074
2.9079374
2.5231529
2.1734088
1.866782
1.6009384
1.3556059
1.0793944
0.7684103
0.50146217
0.35230977
0.36120545
0.51060362
0.79191804
1.1925907
1.8453203
1.3789078
1.1315681
0.94787296
0.85947151
0.84783622
0.85609072
0.87778938
0.90770866
0.97196533
1.1689842
1.6631773
2.407378
3.174158
3.8224757
4.2991244
4.590449
4.7024395
4.6531388
4.4685115
4.1790552
3.8167521
3.4126454
2.9951841
2.588822
2.2121369
1.8759124
1.5821285
1.3218546
1.0669413
0.82399128
0.60984996
0.4102996
0.32418641
0.36986242
0.54019916
0.82787283
1.2222341
1.8551935
1.3729173
1.122802
0.93895965
0.85340791
0.84433734
0.85442165
0.87697941
0.90683417
0.96430458
1.1317574
1.5741388
2.2929213
3.0710758
3.7493667
4.2627914
4.5913825
4.7372384
4.7159013
4.551946
4.2754134
3.9184287
3.5122993
3.0855621
2.6629539
2.2643962
1.9031461
1.5839833
1.3025463
1.0422348
0.82400998
0.66282442
0.48994104
0.34889
0.30933043
0.38168521
0.56637026
0.85689226
1.2453409
1.8624443
1.3686033
1.114277
0.93058216
0.84747927
0.84069707
0.85235303
0.87575805
0.90575994
0.95834595
1.1019428
1.4954027
2.1826825
2.9659963
3.6702724
4.2180904
4.5827309
4.7621043
4.7689961
4.6263742
4.3637234
4.0134392
3.6074813
3.1748681
2.7404514
2.3245882
1.9422962
1.6011316
1.2995504
1.0257423
0.80852012
0.66800786
0.53576568
0.40200217
0.30860861
0.30278599
0.39438315
0.58869684
0.88014057
1.2634299
1.8678577
1.3678918
1.108531
0.92259155
0.84171246
0.8369875
0.84996018
0.87417796
0.90443129
0.95351659
1.0780726
1.4267595
2.0781212
2.8606199
3.5867768
4.1664023
4.565651
4.7779817
4.8131793
4.6923577
4.4442472
4.1014691
3.6968571
3.260392
2.8173995
2.3882492
1.9886104
1.6282971
1.3087749
1.0209492
0.79672881
0.65765622
0.54295167
0.43786409
0.3393823
0.28282174
0.30121431
0.40660954
0.60731865
0.89870173
1.2776447
1.8719593
1.3672084
1.1078144
0.91745813
0.83612582
0.83327129
0.84731055
0.87230128
0.90284068
0.94942703
1.0588784
1.3675836
1.9803111
2.7564516
3.5003646
4.1090675
4.5412958
4.7858363
4.849259
4.7505815
4.5175395
4.1828183
3.7801538
3.3408204
2.8911752
2.4518414
2.0383808
1.6616274
1.325915
1.0251918
0.79305902
0.64913565
0.5356577
0.44437581
0.36442384
0.29587385
0.26669967
0.30241454
0.41767852
0.62263134
0.91350041
1.2888543
1.8751056
1.366539
1.1069799
0.91644068
0.83272511
0.82958546
0.84447273
0.8701914
0.90100495
0.94581887
1.0433126
1.3169872
1.8899395
2.6547738
3.4123892
4.0473553
4.5107841
4.7866189
4.8780392
4.801748
4.5842416
4.2580516
3.8577084
3.4158985
2.9604582
2.5128617
2.0885624
1.6982619
1.3479913
1.0351103
0.79593907
0.64703631
0.52923068
0.43821242
0.36847206
0.31078145
0.26617953
0.25686591
0.30498988
0.42732484
0.63511007
0.92529614
1.2977199
1.8775405
1.3658768
1.1060423
0.91539191
0.83182441
0.82733457
0.84155071
0.86791084
0.89894893
0.94252362
1.0305385
1.2739549
1.8073326
2.5566348
3.3240557
3.982444
4.4751809
4.7812457
4.9002943
4.8465291
4.6449774
4.3277861
3.9301036
3.4859874
3.0249698
2.5699511
2.1368211
1.7357763
1.3730135
1.0484865
0.80262423
0.65026647
0.52830249
0.43256872
0.36202557
0.31155523
0.2724821
0.24612981
0.2510369
0.30809543
0.43552563
0.64522055
0.93470006
1.3047477
1.8794379
1.3652207
1.1050183
0.91429655
0.83095637
0.82656963
0.83978808
0.86553033
0.89670837
0.93943431
1.019901
1.2374508
1.7325071
2.4628484
3.236407
3.9154043
4.4354818
4.7705861
4.9167589
4.885551
4.700316
4.3925908
3.9979447
3.5516842
3.0850659
2.6227463
2.1817298
1.7721052
1.3992937
1.0641585
0.81128787
0.65626655
0.53212613
0.43201517
0.35608051
0.30405418
0.26995626
0.24557697
0.23265013
0.24770906
0.31124962
0.44238204
0.65338103
0.94220003
1.310329
1.8809246
1.3645694
1.103925
0.91316233
0.83011559
0.82584408
0.83912459
0.86406018
0.89437216
0.93648967
1.0108936
1.2064893
1.6652299
2.3740037
3.1503217
3.8471913
4.3926037
4.7554557
4.9281235
4.9193922
4.7507641
4.4529565
4.0617624
3.6135904
3.1413479
2.6715561
2.222786
1.8057756
1.4251799
1.0812591
0.8212952
0.66327805
0.53815302
0.43608822
0.35503698
0.29714995
0.26118686
0.24018393
0.22683839
0.22357942
0.24591323
0.31419943
0.44804852
0.65995088
0.94818414
1.3147681
1.8820944
1.3639285
1.1027775
0.91199378
0.82929689
0.82514186
0.83851456
0.86344222
0.89296696
0.9336915
1.0031419
1.1801781
1.6050834
2.2904849
3.0665175
3.7786381
4.3473769
4.7366096
4.9350327
4.9485862
4.7967726
4.5092975
4.1219884
3.6722082
3.194413
2.7169634
2.2601707
1.8360803
1.4492378
1.0987303
0.83243581
0.67092257
0.5444899
0.44219531
0.35870318
0.29494901
0.253105
0.23028395
0.21916837
0.21380803
0.21744647
0.24503507
0.31682998
0.45269352
0.66523096
0.95296082
1.3183029
1.883018
1.363304
1.1015867
0.91079481
0.82849634
0.82445899
0.83794666
0.86287432
0.89234662
0.93208938
0.99643647
1.1577535
1.5515247
2.2124897
2.9855631
3.7104619
4.3005426
4.7147386
4.9380837
4.9736252
4.8387458
4.5619668
4.1789686
3.7279259
3.2447444
2.7595615
2.2944191
1.8630005
1.4705323
1.1153662
0.84423788
0.67939524
0.55086244
0.44820681
0.36450394
0.29752652
0.24940821
0.2211197
0.20841636
0.20442325
0.2047107
0.21326833
0.24469115
0.31910612
0.4564788
0.66946945
0.95677512
1.3211202
1.8837493
1.3609579
1.1003635
0.90958191
0.82771085
0.82379107
0.83741213
0.86234208
0.89179179
0.93133802
0.99282732
1.1386662
1.503968
2.1400444
2.9078801
3.6432693
4.2527557
4.6904678
4.9378251
4.9949621
4.8770485
4.6112682
4.232982
3.7810373
3.2926952
2.7998217
2.3261188
1.886948
1.4887459
1.1300979
0.85589157
0.68858233
0.5577823
0.45384219
0.37008729
0.30245549
0.25041115
0.21590442
0.19841024
0.19309807
0.19406942
0.19830886
0.21039458
0.24464576
0.32103593
0.45955022
0.67286887
0.95982192
1.3233674
1.8843294
1.3564707
1.0963369
0.90838936
0.8269376
0.82313464
0.83690418
0.86183913
0.89128709
0.93067537
0.99119623
1.1283268
1.4619985
2.0730613
2.8337271
3.5775493
4.20459
4.6643603
4.9347569
5.0130118
4.9120113
4.6574677
4.2842599
3.8317681
3.3385167
2.8380764
2.3557468
1.9084617
1.5040769
1.1422526
0.86646735
0.69793433
0.56541198
0.45984763
0.37510467
0.30726706
0.25396833
0.21514136
0.19186125
0.18250632
0.18239001
0.18675603
0.19375708
0.2083962
0.24475643
0.3226489
0.46203439
0.67559363
0.96225634
1.3251609
1.8847905
1.3517396
1.0898703
0.90454189
0.82617651
0.82249266
0.83641728
0.86135981
0.89082188
0.93007697
0.98981206
1.123725
1.438238
2.0116457
2.7632408
3.513636
4.1565245
4.6369221
4.9293363
5.0281538
4.9439345
4.7008016
4.3329981
3.8802979
3.382395
2.874547
2.3835899
1.9280123
1.5169933
1.151674
0.87514342
0.70667349
0.57339767
0.46658108
0.380458
0.31152474
0.25763641
0.21704912
0.18940498
0.17488992
0.17142098
0.17487299
0.18154236
0.19048292
0.20698992
0.24493896
0.32398322
0.46403869
0.67777666
0.96420196
1.3265931
1.8851574
1.3470606
1.0846346
0.89831426
0.82376998
0.82187514
0.83594644
0.86089967
0.89038831
0.92952938
0.98860802
1.1198782
1.4275491
1.9753913
2.6968492
3.4517291
4.1088879
4.6085826
4.9219812
5.040738
4.9730911
4.7414805
4.379366
3.9267716
3.4244794
2.9093699
2.4098507
1.9459524
1.5279877
1.1586376
0.88144605
0.7139374
0.58112719
0.47380443
0.38663361
0.31620911
0.2608956
0.21933135
0.18964089
0.17097286
0.1629969
0.16367365
0.16955114
0.17778424
0.18809921
0.20598795
0.24514505
0.32507861
0.46565285
0.67952506
0.96575723
1.327737
1.8854496
1.3425339
1.0802309
0.89300573
0.8200612
0.81990383
0.83548662
0.86045787
0.88998028
0.92902262
0.98754083
1.1165833
1.4186212
1.9586176
2.6565396
3.3923695
4.0618663
4.5796283
4.9130484
5.0510894
4.9997342
4.7796931
4.4235122
3.9713143
3.4648933
2.94266
2.4346645
1.9624812
1.5374347
1.1636349
0.885393
0.71903755
0.5877692
0.48103877
0.39344319
0.32188978
0.26473183
0.22139528
0.19048605
0.16970389
0.15790348
0.15465569
0.1582168
0.16574196
0.17504321
0.18634303
0.205265
0.24534832
0.32597271
0.46695095
0.68092502
0.96700059
1.3286511
1.8856824
1.3382051
1.0764332
0.88833932
0.81696524
0.81685334
0.83400298
0.86003522
0.8895926
0.92854934
0.98658065
1.1137052
1.4110053
1.9445724
2.6372668
3.3557308
4.0160191
4.5501987
4.902759
5.0594841
5.024102
4.8156146
4.465568
4.0140373
3.503726
2.9745211
2.4581265
1.9777127
1.5455557
1.1671192
0.88736406
0.72178106
0.59246812
0.48750804
0.40048949
0.32840867
0.26977813
0.22416751
0.19127909
0.16922423
0.1553859
0.14865286
0.14876638
0.15433138
0.16298242
0.17302038
0.18503447
0.20473691
0.24553548
0.32669933
0.4679937
0.68204576
0.96799481
1.3293816
1.8858679
1.3340975
1.073098
0.88414906
0.81429099
0.81417091
0.83171974
0.85866447
0.88921895
0.92810513
0.98570542
1.1111491
1.4043862
1.9325883
2.6211504
3.3375609
3.9874879
4.520817
4.8911875
5.0660704
5.0463933
4.8494113
4.5056544
4.0550395
3.5410681
3.0050511
2.4803219
1.9917222
1.5524601
1.1693621
0.8878235
0.72248899
0.59481716
0.49221835
0.40703164
0.33541034
0.27593817
0.22834217
0.19283643
0.16880095
0.15378484
0.14515175
0.14207469
0.14456541
0.15153064
0.16095868
0.17151073
0.18404919
0.20434656
0.2457009
0.32728783
0.46883062
0.68294287
0.96878989
1.3299653
1.8860155
1.3302255
1.0701208
0.88034182
0.81193008
0.8117562
0.82968749
0.85652974
0.88800713
0.92768548
0.98489847
1.1088456
1.3985361
1.9221818
2.6074225
3.3224556
3.9726812
4.5025965
4.8787932
5.0708532
5.0666876
4.8812174
4.5438875
4.0944107
3.5770016
3.0343318
2.5013348
2.0045751
1.5582018
1.1704922
0.88712137
0.72164953
0.59503794
0.49456375
0.41194757
0.34214045
0.28289484
0.23395133
0.1959151
0.16910685
0.15229037
0.14265451
0.13782124
0.13735549
0.14153253
0.14948608
0.15945691
0.17037237
0.1833003
0.20405482
0.24584327
0.32776323
0.46950192
0.68366088
0.96942566
1.3304316
1.886133
1.326602
1.0674224
0.8768525
0.80980709
0.8095363
0.82783694
0.85457133
0.88614675
0.9263412
0.98414399
1.1067435
1.3932874
1.9129993
2.5955278
3.3096368
3.9604993
4.4924569
4.8715063
5.0742076
5.0849234
4.9110558
4.5803576
4.1322395
3.6116045
3.0624405
2.5212517
2.0163419
1.5628302
1.1705487
0.88542441
0.71966877
0.5936711
0.49470244
0.41445974
0.3473276
0.28982886
0.24075106
0.20074651
0.17095745
0.15141686
0.14027162
0.13463218
0.13253415
0.13393231
0.13931536
0.14797508
0.15833017
0.16950594
0.18272631
0.20383456
0.24596358
0.32814651
0.47004006
0.68423546
0.96993412
1.3308039
1.8862265
1.3232405
1.0649413
0.87363386
0.80786494
0.80746393
0.82611494
0.85274699
0.88442884
0.92433406
0.98182788
1.1047987
1.3885141
1.904777
2.5850649
3.2985684
3.9502067
4.4842667
4.8666321
5.0772744
5.1013798
4.9388115
4.6150526
4.1685934
3.6449555
3.0894528
2.5401585
2.0270959
1.5664059
1.1695472
0.88276931
0.7167414
0.5911909
0.49324396
0.4146887
0.35003665
0.29527846
0.24782671
0.20721767
0.17482998
0.15202553
0.13836065
0.13154069
0.12882031
0.12868362
0.13141963
0.13767458
0.14684549
0.15747634
0.16884106
0.18228317
0.20366674
0.24606393
0.32845503
0.47047125
0.68469531
0.97034068
1.3311009
1.8863011
1.320155
1.062629
0.8706528
0.80605905
0.80550208
0.82447926
0.85100915
0.88281681
0.92248308
0.97856654
1.0989836
1.3841083
1.8973141
2.5757278
3.2888778
3.9413483
4.4773698
4.8628852
5.0776862
5.1132151
4.964667
4.6478244
4.2034479
3.6771176
3.1154466
2.5581417
2.0369162
1.5690037
1.1675101
0.87913441
0.71290041
0.5878241
0.49071857
0.41331524
0.35037781
0.29815103
0.25348566
0.2143205
0.18079944
0.15484953
0.1378122
0.12876085
0.12517617
0.12457403
0.12584841
0.12955356
0.1364464
0.14599218
0.1568236
0.1683272
0.18193892
0.20353785
0.24614684
0.32870302
0.4708167
0.68506342
0.97066556
1.3313382
1.8864263
1.3173577
1.0604449
0.86788667
0.8043542
0.8036206
0.8228942
0.8493222
0.8812671
0.92074862
0.97568236
1.0909035
1.3711065
1.8904392
2.5672849
3.2802774
3.9336343
4.4714357
4.859725
5.0783389
5.1183973
4.9828997
4.6787588
4.2366473
3.708074
3.1404888
2.5752923
2.0458883
1.5707095
1.164474
0.87448584
0.7081043
0.58360825
0.48738258
0.41094135
0.34912203
0.29856562
0.25646669
0.22010893
0.18779502
0.16018792
0.13959384
0.12719799
0.12169154
0.12050338
0.12144007
0.12373752
0.12815239
0.1355175
0.14534157
0.15632073
0.16792763
0.18167007
0.20343818
0.24621482
0.32890217
0.47109354
0.68535827
0.97092537
1.331714
1.8866408
1.3148564
1.0583541
0.86531949
0.80272221
0.80179536
0.82132876
0.84765536
0.87974146
0.91907669
0.97306641
1.0838507
1.3527856
1.8702586
2.559532
3.2725432
3.9268285
4.4662921
4.8569706
5.0788439
5.1229612
4.9918593
4.7004865
4.2682054
3.7376842
3.1645796
2.5916954
2.054105
1.5716188
1.1604865
0.86880542
0.70229658
0.57849301
0.48327784
0.40784435
0.34693956
0.29739038
0.25690186
0.22313991
0.19362168
0.1669529
0.14423645
0.12801566
0.11927636
0.11645779
0.1170412
0.11910255
0.12214923
0.12708977
0.13480847
0.14484147
0.15593077
0.16761534
0.1814592
0.20336063
0.24627026
0.32906213
0.4713159
0.68559451
0.97133148
1.3323854
1.8869745
1.3126495
1.056323
0.86293853
0.80114084
0.80000791
0.81975621
0.8459811
0.87820517
0.91742371
0.9706177
1.0775156
1.3365838
1.8413594
2.5368546
3.2654709
3.9207454
4.4617791
4.8545843
5.0791761
5.1266989
4.9994641
4.7118445
4.2903712
3.7659035
3.1876081
2.6073834
2.0616589
1.5718357
1.1556073
0.86209909
0.69544011
0.57240523
0.478345
0.40406558
0.34412083
0.29535486
0.25575147
0.2235505
0.19664808
0.17273013
0.15067975
0.13195998
0.11924823
0.11334616
0.11255356
0.11445073
0.11734124
0.12094259
0.12627676
0.13426295
0.14445439
0.15562667
0.16737021
0.18129317
0.20329997
0.24631539
0.32919107
0.47149476
0.68596085
0.97206898
1.3334223
1.88748
1.3107222
1.0543178
0.86073082
0.79959291
0.7982456
0.81815452
0.84427558
0.87662617
0.91575143
0.96825562
1.0716384
1.3217881
1.8152351
2.5042284
3.2447613
3.9152055
4.4577694
4.8524964
5.0794333
5.1297287
5.005698
4.7213265
4.3025343
3.7856765
3.2095047
2.6222909
2.0686059
1.571466
1.1499109
0.85439466
0.68753131
0.56528945
0.47249037
0.39953415
0.34070539
0.29275996
0.25379263
0.22237819
0.19700214
0.17570516
0.15633555
0.13803072
0.12253781
0.11260263
0.10888241
0.10961616
0.11249378
0.1160016
0.12001805
0.12564994
0.13384035
0.14415302
0.15538842
0.16717711
0.18116204
0.20325239
0.24635245
0.32929544
0.47177037
0.68663231
0.9732061
1.3349979
1.8882267
1.3090441
1.0523033
0.85867935
0.79806611
0.79650143
0.81650755
0.84251987
0.87497557
0.91402524
0.96591438
1.0660195
1.307822
1.7908061
2.4741186
3.2153038
3.898774
4.4541226
4.8506486
5.0796417
5.13227
5.0107944
4.7290885
4.3125807
3.7970317
3.224733
2.6363275
2.0749267
1.5705901
1.1434816
0.84574727
0.67859699
0.55712598
0.46562929
0.39412981
0.33661296
0.2896458
0.25133356
0.22043318
0.19577838
0.17598283
0.15922301
0.14351537
0.12822214
0.11530754
0.10754845
0.1054998
0.10738713
0.11100217
0.11497416
0.11930437
0.12516353
0.13351107
0.14391721
0.15520102
0.16702454
0.18105827
0.20321528
0.24638326
0.32945591
0.47227947
0.68766812
0.97493487
1.3373392
1.8892925
1.3075678
1.0502433
0.85676172
0.79655267
0.79477371
0.81480602
0.84070175
0.87322914
0.91221449
0.96353968
1.0605068
1.2942277
1.7671749
2.4453557
3.1875748
3.8761169
4.4428431
4.8489528
5.0798164
5.1344404
5.0150665
4.7354421
4.3207932
3.806339
3.2339436
2.6458238
2.0805637
1.5692287
1.1363941
0.8362368
0.66868867
0.54792486
0.45771363
0.38772939
0.33169491
0.28592904
0.2484197
0.21802657
0.19380483
0.17469374
0.15941373
0.14629111
0.13350889
0.12061943
0.109749
0.10368614
0.10291819
0.10568191
0.10985613
0.11418042
0.11874996
0.12478397
0.13325326
0.14373193
0.15505314
0.16690373
0.18097622
0.20318664
0.24643076
0.32975537
0.47306622
0.6892446
0.9775073
1.3407087
1.8907411
1.3062305
1.048101
0.85494915
0.79504887
0.79306535
0.81304867
0.83881679
0.87136984
0.91029424
0.96108735
1.0549876
1.2806449
1.7435865
2.4169114
3.1605736
3.8542835
4.4282894
4.8428687
5.0799241
5.1363232
5.0187083
4.7407555
4.327517
3.813938
3.2414536
2.6520171
2.0839129
1.5673326
1.128688
0.8259536
0.65787769
0.53770908
0.44872669
0.38024895
0.32578241
0.28143512
0.24497306
0.21521394
0.19139026
0.17266997
0.15805633
0.14639128
0.13616054
0.12570107
0.11471978
0.10546197
0.10071851
0.10093423
0.10436785
0.10896947
0.11356341
0.11831698
0.12448644
0.13305059
0.14358585
0.15493617
0.16680807
0.18091155
0.20314315
0.24652399
0.33022006
0.47426646
0.69159506
0.98121644
1.3453425
1.8925858
1.3049566
1.0458391
0.85320695
0.79355396
0.79138227
0.81124241
0.83686948
0.86938989
0.90824765
0.95852401
1.0493866
1.2668024
1.7194087
2.3878653
3.1333501
3.8325847
4.4137312
4.8363098
5.0785773
5.1379387
5.0218592
4.7452758
4.3331325
3.8201659
3.2475876
2.6570554
2.0866473
1.5650617
1.1203618
0.81498055
0.64624708
0.52650721
0.43865437
0.37164744
0.31875085
0.27594651
0.24079881
0.21192933
0.18860291
0.17021316
0.15597608
0.14496886
0.13617169
0.12822626
0.11960329
0.11013146
0.10214255
0.09842564
0.099399815
0.10334871
0.10827939
0.11308127
0.11797731
0.12425231
0.13289074
0.14347038
0.15484359
0.16673242
0.18081317
0.20307042
0.24667167
0.33093305
0.47606251
0.6949939
0.98633044
1.3513352
1.894751
1.3036604
1.0434211
0.85149575
0.79206855
0.78973139
0.80940123
0.83487292
0.86729282
0.90606827
0.95582843
1.043666
1.2525231
1.694129
2.3573981
3.1049888
3.8102789
4.3988714
4.8291153
5.0790194
5.1405559
5.0245843
4.7491786
4.3379081
3.8253724
3.252633
2.6611866
2.0888912
1.5644168
1.1131744
0.80348499
0.63387164
0.5143575
0.42747095
0.36188566
0.31053949
0.26929362
0.23563247
0.20796476
0.18539242
0.16740362
0.15346356
0.14283501
0.13469057
0.12815351
0.12200706
0.11483266
0.10655276
0.099561573
0.096644764
0.098206353
0.10255395
0.10773961
0.11270287
0.11770987
0.12406748
0.13276433
0.14337903
0.15477036
0.16661768
0.18064044
0.20296322
0.24690492
0.3320092
0.47867361
0.69969879
0.99296661
1.3585055
1.8970648
1.3022496
1.0408111
0.84977365
0.79059298
0.78811831
0.80754363
0.83284712
0.86509424
0.90376203
0.95299301
1.0378242
1.2377332
1.6673746
2.3247978
3.0746382
3.7865704
4.3832393
4.8214003
5.0784556
5.1464434
5.0302236
4.7525607
4.3420327
3.8298164
3.256877
2.6646188
2.0907803
1.5639377
1.1093702
0.7945473
0.6208949
0.501291
0.41515419
0.35089429
0.30109926
0.26139788
0.22925897
0.20301489
0.18154435
0.16420775
0.15060897
0.14026668
0.13251022
0.12662107
0.12185781
0.11712477
0.11109192
0.1037528
0.097546519
0.095254921
0.097273513
0.10193129
0.10731563
0.11240482
0.11749865
0.12392122
0.13266428
0.14330678
0.1546597
0.16641505
0.18037997
0.20281135
0.24727199
0.33359333
0.4823151
0.70583599
1.0009392
1.3663362
1.8993042
1.3006254
1.0379724
0.84799821
0.78912581
0.78654542
0.80568929
0.83081584
0.86282035
0.901348
0.9500252
1.0318946
1.2224694
1.6389478
2.2894924
3.0415242
3.7606938
4.3662207
4.8129809
5.0773821
5.1512403
5.0397068
4.760231
4.3456189
3.8336774
3.2605396
2.6675575
2.0924165
1.5636429
1.1063444
0.78879622
0.61069669
0.48739759
0.40167912
0.33859372
0.29033303
0.25220879
0.22158296
0.19682388
0.17672104
0.16040962
0.14739461
0.13736117
0.12989278
0.12440243
0.12028141
0.11690758
0.1132846
0.10815155
0.1015553
0.095967305
0.094165676
0.096541327
0.10144156
0.10698144
0.11216934
0.11733143
0.12380536
0.1325851
0.14319787
0.15446442
0.16610909
0.17999735
0.20261054
0.24784395
0.33584087
0.4871119
0.71325594
1.0096859
1.3740867
1.9012739
1.2986828
1.0348669
0.84612754
0.78766304
0.78501055
0.80385542
0.82880255
0.8605044
0.89885686
0.94694771
1.0259379
1.2068778
1.6088591
2.2511035
3.0049839
3.7319302
4.34721
4.8034552
5.0758878
5.1557431
5.0482838
4.7714035
4.354414
3.8370662
3.2637732
2.67017
2.0939095
1.5635301
1.1040166
0.78421666
0.60412874
0.47628494
0.38707792
0.3249116
0.2781102
0.24161061
0.21255453
0.18928338
0.17063439
0.15564822
0.14360638
0.13411479
0.12694007
0.12174491
0.1180322
0.11529408
0.11300834
0.11025781
0.10583464
0.099825587
0.094725447
0.093308914
0.095964616
0.10105515
0.10671728
0.11198288
0.1171989
0.12371358
0.13246568
0.14300591
0.15417022
0.16565882
0.17945809
0.20237463
0.24871635
0.33886788
0.49298063
0.72145356
1.018383
1.3810472
1.9028651
1.2963075
1.0314518
0.8441211
0.78619816
0.78350651
0.80205392
0.82682646
0.85818177
0.89632693
0.94379672
1.0200332
1.191198
1.5773503
2.2095098
2.9645257
3.6996335
4.3256202
4.7924198
5.0737921
5.1602791
5.0569311
4.7820618
4.3655533
3.8462346
3.2666733
2.6725695
2.0953603
1.5636136
1.1022838
0.78059981
0.5989005
0.46904722
0.37518267
0.30982127
0.26431232
0.2294212
0.20203877
0.18034512
0.16316993
0.14961309
0.13886795
0.13031715
0.1236601
0.11875279
0.11534347
0.11302087
0.11136387
0.10993105
0.10786717
0.1040048
0.098460493
0.093745976
0.092632942
0.095509038
0.10074944
0.106508
0.11183504
0.11709383
0.1235749
0.13225486
0.14271716
0.15373878
0.16502219
0.17874442
0.2021545
0.24999534
0.34267036
0.49955022
0.72966218
1.0262265
1.3867699
1.9040634
1.29337
1.0276754
0.8419398
0.78472234
0.78202141
0.80028971
0.82489938
0.85588432
0.89379869
0.9406178
1.0142661
1.1757298
1.5448904
2.164904
2.9199056
3.6632878
4.3008966
4.7794662
5.0709136
5.1648831
5.0661684
4.7932308
4.3766954
3.8559703
3.2757452
2.6748371
2.0968446
1.5639304
1.1010669
0.77776133
0.59477163
0.46324449
0.36733315
0.29733013
0.2488541
0.21547292
0.18979339
0.16985112
0.15428503
0.14219145
0.13285568
0.12558317
0.11984716
0.11544362
0.11232054
0.11030856
0.10907198
0.10826093
0.10749782
0.10597528
0.10255662
0.097380661
0.092971492
0.092098236
0.095148277
0.10050709
0.106342
0.11171778
0.11693489
0.12332934
0.13193749
0.14229485
0.15313226
0.16417496
0.17788528
0.20205297
0.25175406
0.34704993
0.5062155
0.73711262
1.0326981
1.3911393
1.9049183
1.2897151
1.0234705
0.83954397
0.78322522
0.78053927
0.79856028
0.82302394
0.85363584
0.89130819
0.93745952
1.0087167
1.1607886
1.5121292
2.1178207
2.871205
3.622583
4.272563
4.7641787
5.067047
5.1695927
5.0762233
4.8055653
4.3887831
3.8662458
3.2832302
2.683599
2.0984344
1.5645268
1.1003328
0.77554508
0.59153235
0.45863469
0.36099582
0.28898246
0.23588211
0.19963062
0.17559158
0.15749061
0.14379939
0.13335202
0.12546504
0.11958355
0.11511232
0.11161656
0.1089885
0.10726254
0.10634217
0.10595455
0.10580659
0.10557041
0.10447548
0.1014084
0.096524774
0.092357785
0.091674366
0.094862056
0.10031473
0.10621026
0.11154043
0.11665286
0.12295911
0.13147275
0.14170374
0.15233271
0.16314461
0.17698815
0.20220918
0.25396439
0.3516183
0.51233725
0.74329278
1.0376531
1.3942879
1.9055045
1.2851452
1.0187459
0.83689181
0.78169548
0.77904087
0.79685627
0.82119353
0.85144914
0.88888187
0.93436634
1.0034489
1.1466579
1.4798161
2.069112
2.8188848
3.5774974
4.2402884
4.7461655
5.061944
5.1744095