/*--------------------------------*- C++ -*----------------------------------*\
| =========                 |                                                 |
| \\      /  F ield         | OpenFOAM: The Open Source CFD Toolbox           |
|  \\    /   O peration     | Version:  2206                                  |
|   \\  /    A nd           | Website:  www.openfoam.com                      |
|    \\/     M anipulation  |                                                 |
\*---------------------------------------------------------------------------*/
FoamFile
{
    version     2.0;
    format      ascii;
    arch        "LSB;label=32;scalar=64";
    class       volScalarField;
    location    "0";
    object      k;
}
// * * * * * * * * * * * * * * * * * * * * * * * * * * * * * * * * * * * * * //

dimensions      [0 2 -2 0 0 0 0];

internalField   nonuniform List<scalar> 
19794
(
3.0606081
3.679551
1.9657036
3.6677073
2.4063267
1.2801897
3.507708
2.4608521
1.5582915
0.99860424
3.1112287
2.4160723
1.6614528
1.1853932
0.9324934
2.6713533
2.2410398
1.7507121
1.3119805
1.121572
0.94387079
2.2838228
2.0518705
1.7927945
1.4718898
1.2982511
1.2001081
0.99389763
2.0032216
1.896288
1.8190859
1.6233754
1.5436687
1.4726065
1.3993076
1.0879597
1.8337748
1.7931091
1.8323041
1.7473915
1.797897
1.8469152
1.8654785
1.7530584
1.2490166
1.7657418
1.7382743
1.8356015
1.8247885
2.0045751
2.230462
2.4828878
2.5214028
2.3027555
1.5030329
1.7866846
1.7268453
1.8321858
1.8571465
2.1258384
2.528729
3.0985742
3.4839514
3.4691655
3.0626195
1.8658366
1.8826747
1.7565171
1.828321
1.856042
2.1656267
2.6855128
3.5646675
4.407018
4.8579439
4.6895773
4.0184357
2.3387598
2.0359891
1.8253575
1.8310526
1.833823
2.1480103
2.7126002
3.8026464
5.0898013
6.1497806
6.5557676
6.1459795
5.1424939
2.9115422
2.2252501
1.9269294
1.8465192
1.8013322
2.0942131
2.6527683
3.8357535
5.4391926
7.0961408
8.254306
8.5279891
7.8023823
6.4062219
3.567736
2.4295784
2.0495125
1.8759745
1.7677724
2.01941
2.5411457
3.732987
5.4959471
7.5954603
9.4923367
10.663166
10.73379
9.6296975
7.7853868
4.2890604
2.6328105
2.1797089
1.9151518
1.7384808
1.9360214
2.3996274
3.5510001
5.3591483
7.7087313
10.164781
12.216139
13.331013
13.142299
11.605764
9.2608701
5.0580045
2.8248805
2.3064948
1.9573386
1.713923
1.8534784
2.2448667
3.3228825
5.1109283
7.5664113
10.356068
13.082892
15.21809
16.224017
15.730691
13.713832
10.817901
5.85928
3.0009076
2.4230313
1.9970483
1.6919355
1.7763328
2.0914762
3.0704725
4.7986274
7.2784843
10.229749
13.3745
16.297057
18.461272
19.317082
18.482063
15.94097
12.445093
6.6808864
3.1593023
2.5262352
2.0316621
1.671056
1.705436
1.9491793
2.8131235
4.4492834
6.9097592
9.925383
13.288581
16.709323
19.767981
21.91799
22.591474
21.383526
18.27664
14.133733
7.5154113
3.2997663
2.6153153
2.0608435
1.6519213
1.6412354
1.8221908
2.5662372
4.0838318
6.4944705
9.5274079
12.994509
16.68738
20.320265
23.466177
25.567287
26.032789
24.424402
20.711355
15.877557
8.3620387
3.421932
2.6902361
2.0851219
1.6363473
1.5855697
1.7122494
2.3395445
3.7190343
6.0543265
9.0793447
12.597046
16.429898
20.386315
24.177605
27.369423
29.392948
29.628995
27.594285
23.235287
17.673241
9.2294052
3.5250276
2.7507033
2.1047032
1.6257507
1.5408305
1.6210635
2.1389774
3.3671352
5.6039466
8.6048341
12.150121
16.061805
20.193223
24.357153
28.259651
31.460853
33.381573
33.368225
30.880641
25.836646
19.52202
10.138141
3.6083455
2.7959618
2.1189324
1.6201545
1.5082754
1.5500424
1.9688125
3.0376344
5.152962
8.1161507
11.68037
15.647776
19.885152
24.258974
28.580755
32.550962
35.727158
37.520384
37.235981
34.265494
28.499716
21.43232
11.118148
3.6719539
2.8252691
2.1264885
1.6180792
1.4871466
1.498886
1.8315346
2.7391009
4.7088118
7.6186385
11.198265
15.217999
19.537148
24.04479
28.6121
33.045506
37.040784
40.156516
41.794416
41.211251
37.720566
31.202195
23.420253
12.189705
3.7170994
2.8385504
2.1260593
1.6171779
1.4749458
1.4650565
1.7265362
2.478729
4.2792243
7.1146625
10.704665
14.781481
19.182957
23.798982
28.530469
33.246622
37.745928
41.721129
44.735852
46.182649
45.260819
41.199817
33.910759
25.496531
13.320578
3.7460819
2.8367775
2.1170143
1.6151847
1.468463
1.4445218
1.6499437
2.2604536
3.8726998
6.6068876
10.196191
14.334461
18.830122
23.558296
28.427847
33.342793
38.164501
42.680957
46.58411
49.447027
50.652483
49.330705
44.628089
36.571241
27.620838
14.384331
3.7617552
2.8218878
2.0996898
1.6106195
1.4648856
1.433093
1.596009
2.0840197
3.4973533
6.0997986
9.6695818
13.867425
18.469979
23.328483
28.342867
33.431045
38.492342
43.374155
47.851349
51.618034
54.261385
55.151726
53.333122
47.884275
39.086876
29.631621
15.18446
3.7669786
2.7963807
2.0752245
1.6029558
1.4623892
1.427495
1.5589965
1.945866
3.1597581
5.5997319
9.1242012
13.370899
18.086452
23.095573
28.27885
33.550205
38.827935
43.998427
48.887989
53.255643
56.80164
59.131974
59.596881
57.127097
50.780209
41.28913
31.236572
15.55718
3.7642593
2.7628392
2.0451601
1.5923569
1.4600681
1.4256666
1.5343988
1.840892
2.8644864
5.1145233
8.5628234
12.83907
17.663526
22.836491
28.216041
33.700217
39.207961
44.648879
49.886725
54.718188
58.883903
62.095688
63.982422
63.855897
60.491797
53.052121
42.943436
32.145101
15.45685
3.7556357
2.7236097
2.0110652
1.5792859
1.4575209
1.4264009
1.5190816
1.7638198
2.614026
4.6530903
7.9915359
12.271175
17.190055
22.528314
28.123932
33.855021
39.627742
45.356993
50.933034
56.184967
60.869696
64.708044
67.430783
68.691056
67.723253
63.098955
54.396654
43.87634
32.225846
15.057054
3.7426623
2.6806854
1.9743113
1.5642241
1.4544844
1.4288171
1.5107659
1.709653
2.4085919
4.2246406
7.4191371
11.671407
16.661694
22.154353
27.972347
33.976287
40.054373
46.111868
52.049185
57.723896
62.915282
67.329006
70.667215
72.689877
73.068409
70.885471
64.510995
54.667663
44.086744
31.681828
14.700557
3.7264586
2.6356825
1.9360177
1.5475592
1.4506796
1.4320581
1.5074933
1.6736106
2.2458942
3.837361
6.8560787
11.047903
16.080704
21.706552
27.738779
34.026246
40.441425
46.873299
53.21615
59.342836
65.061
70.081166
74.046411
76.646145
77.683525
76.825087
72.877679
64.338121
54.032545
43.794744
31.100053
14.359447
3.7077787
2.5898862
1.8970979
1.5295941
1.445821
1.435263
1.5074254
1.6510981
2.1212586
3.4969413
6.3130722
10.411217
15.454516
21.185179
27.411302
33.97628
40.743265
47.586701
54.386126
61.012404
67.293684
72.96523
77.646073
80.908536
82.443803
82.115131
79.522281
73.094294
62.45952
53.282992
43.405655
30.484388
14.055677
3.6870971
2.5442838
1.8582924
1.5105941
1.439684
1.4376673
1.5089169
1.6379159
2.0283506
3.2056039
5.7997513
9.7727221
14.793787
20.596987
26.98811
33.810348
40.924829
48.198442
55.496708
62.677196
69.571007
75.938552
81.413708
85.499374
87.697309
87.729111
85.528807
80.516556
70.88326
60.2227
52.871033
42.912134
29.905821
13.795236
3.6647339
2.499621
1.8202046
1.4908243
1.4321615
1.4386968
1.5106503
1.6305481
1.9602772
2.9620348
5.3237154
9.1432719
14.110537
19.952864
26.475295
33.524443
40.965646
48.666702
56.486459
64.268009
71.830504
78.942944
85.266959
90.298869
93.404107
94.031182
91.975911
87.244308
78.887116
67.288015
58.916179
52.525817
42.381741
29.393399
13.576947
3.6409347
2.4564359
1.7833217
1.4705713
1.4232815
1.4380068
1.5116992
1.6263213
1.9106083
2.7621373
4.8900855
8.5323719
13.41673
19.26572
25.884125
33.124003
40.859284
48.96613
57.306535
65.716343
73.998201
81.910173
89.128128
95.173673
99.364681
100.92077
99.279243
94.386218
86.226547
74.936005
64.584246
58.044175
52.180151
41.867902
28.954666
13.396605
3.6157246
2.4150943
1.7480105
1.4501292
1.4131902
1.4354721
1.5115064
1.623378
1.8739864
2.6001927
4.5014988
7.9478378
12.723399
18.54889
25.228627
32.620816
40.610467
49.087481
57.926118
66.966263
76.000212
84.765003
92.925716
100.02233
105.38387
108.11226
107.29664
102.46159
93.731462
82.33643
71.316309
62.396913
57.451261
51.83927
41.399594
28.586787
13.249021
3.588503
2.3758246
1.7145419
1.4297807
1.4021108
1.4311439
1.509815
1.6205338
1.8463
2.4699595
4.1583558
7.3957428
12.040221
17.815131
24.523759
32.030235
40.231585
49.03456
58.332506
67.980706
77.773845
87.43129
96.588639
104.77331
111.33202
115.34149
115.66369
111.33438
102.05633
89.644785
78.337164
67.835707
60.770869
57.047244
51.5127
40.98906
28.28248
13.129014
3.5577811
2.338667
1.6831214
1.4097745
1.3903073
1.4251978
1.5065874
1.6171038
1.824567
2.3654463
3.859207
6.880501
11.375379
17.07605
23.784212
31.369105
39.73954
48.820351
58.528103
68.742471
79.274833
89.840648
100.0437
109.3676
117.14127
122.447
124.04859
120.59466
111.16577
97.474881
85.217256
74.052156
64.863182
59.645787
56.7545
51.211344
40.638316
28.033052
13.031861
3.5352543
2.3028704
1.6538399
1.3902927
1.3780542
1.4178851
1.50193
1.6127507
1.8067106
2.281336
3.6012022
6.404978
10.735555
16.341843
23.023673
30.654294
39.153317
48.463466
58.526295
69.251679
80.479901
91.94055
103.21916
113.74279
122.7745
129.36788
132.25703
129.86386
120.68109
105.94609
92.369212
80.250319
70.012938
62.550333
58.890384
56.529296
50.942323
40.343875
27.8299
12.953453
3.5321504
2.2789424
1.6262347
1.3714517
1.3656159
1.409481
1.4960334
1.6073678
1.7913317
2.2131489
3.3805461
5.9705858
10.125955
15.621165
22.25441
29.901771
38.49223
47.98528
58.347439
69.521578
81.385357
93.699346
106.05328
117.82824
128.19116
136.09924
140.23634
138.92181
130.22638
114.80119
100.00631
86.53322
75.35874
66.567793
60.859579
58.386048
56.348892
50.708335
40.099722
27.665185
12.890312
3.5289973
2.2758154
1.6088218
1.3533074
1.3532213
1.4002429
1.4891239
1.6009887
1.7775178
2.1572465
3.1929338
5.577423
9.5503936
14.92113
21.487075
29.126056
37.774805
47.407884
58.015547
69.574118
82.003258
95.107117
108.50298
121.55271
133.32902
142.63583
148.02177
147.72227
139.57127
123.73915
107.99007
93.143697
80.706064
70.991035
63.847812
59.669414
58.045937
56.201308
50.508785
39.899043
27.532064
12.839545
3.5258401
2.2722059
1.6053099
1.3423182
1.3410173
1.3904216
1.4814378
1.5937176
1.7646935
2.110757
3.0339366
5.2244407
9.0113594
14.247323
20.730612
28.339906
37.018028
46.752644
57.555779
69.436056
82.356626
96.172883
110.54848
124.85787
138.1089
148.93483
155.65675
156.33981
148.66674
132.55304
116.10682
100.05814
86.25323
75.431019
67.388672
61.819737
58.846326
57.812521
56.079596
50.341102
39.735153
27.424736
12.798776
3.5227077
2.2681914
1.6016652
1.3393635
1.3336293
1.3803558
1.4732063
1.5856796
1.7525076
2.0714645
2.899289
4.9096593
8.5101498
13.603902
19.992309
27.55422
36.236991
46.039356
56.992761
69.135967
82.474913
96.919669
112.19278
127.709
142.45347
154.91384
163.13222
164.87237
157.6134
141.18057
124.18661
107.15844
92.057819
79.990895
71.022473
64.605201
60.363448
58.279047
57.649126
55.97912
50.201761
39.601944
27.338357
12.766065
3.5195944
2.2638448
1.5978558
1.3365253
1.3311399
1.3742626
1.4646898
1.5770279
1.7407542
2.0376782
2.7850887
4.6304371
8.0470233
12.99371
19.277853
26.77802
35.4447
45.285723
56.349453
68.702093
82.390291
97.3792
113.45705
130.09866
146.30672
160.47394
170.37315
173.35726
166.55928
149.71262
132.15531
114.31898
98.08636
84.756186
74.745916
67.583506
62.560372
59.338632
57.885999
57.532491
55.896362
50.086943
39.494058
27.268931
12.739836
3.5164805
2.2592339
1.593923
1.3337842
1.3287642
1.3719906
1.4594651
1.5680778
1.7293452
2.0081154
2.6878921
4.383715
7.6213801
12.418437
18.591484
26.018555
34.652079
44.507138
55.646543
68.161009
82.135002
97.58725
114.3743
132.04311
149.6445
165.53015
177.26203
181.74295
175.59476
158.31206
140.08086
121.44919
104.26203
89.750392
78.616588
70.662134
65.052651
61.109422
58.622141
57.610938
57.447712
55.828441
49.992944
39.406917
27.213186
12.718815
3.5133642
2.2544207
1.589882
1.3311227
1.3264603
1.369905
1.4573002
1.5626712
1.7183829
1.981856
2.6047493
4.1662378
7.2319606
11.878808
17.936146
25.281434
33.868056
43.716662
54.902182
67.536863
81.739701
97.580334
114.98361
133.57499
152.47382
170.03327
183.67983
189.9042
184.7117
167.09973
148.12278
128.5791
110.48349
94.948205
82.675118
73.826719
67.6843
63.273051
60.099886
58.119809
57.416078
57.385082
55.772908
49.916371
39.336677
27.168464
12.701975
3.5102635
2.2494612
1.585739
1.3285271
1.3242222
1.3679659
1.4553008
1.5603282
1.7120337
1.9584776
2.5332508
3.97472
6.876993
11.374789
17.313718
24.570834
33.099727
42.925131
54.131916
66.850977
81.232403
97.393477
115.32569
134.73563
154.82405
173.97544
189.54336
197.68491
193.80302
176.10964
156.41464
135.85432
116.7391
100.25601
86.946716
77.090888
70.344402
65.631329
62.060604
59.402428
57.764644
57.276217
57.338158
55.727669
49.85423
39.280153
27.132606
12.688488
3.4990559
2.2444273
1.581534
1.3259871
1.3220354
1.3661434
1.453425
1.5582337
1.7091081
1.9455527
2.4717832
3.8060818
6.5542899
10.905698
16.725213
23.889708
32.352568
42.14131
53.348782
66.121795
80.638109
97.059061
115.44011
135.56944
156.73692
177.3803
194.81993
204.95601
202.68826
185.27938
165.01451
143.41772
123.15425
105.62929
91.373707
80.522537
72.981902
67.971047
64.277318
61.249475
58.919539
57.510659
57.174508
57.302578
55.69093
49.803955
39.234722
27.103869
12.677689
3.4771642
2.2280407
1.577373
1.3234974
1.3198857
1.3644138
1.4516549
1.5563304
1.7065131
1.9397075
2.438183
3.6582143
6.261506
10.470185
16.170871
23.240036
31.630679
41.372138
52.563516
65.364979
79.978649
96.606171
115.36375
136.12012
158.25936
180.28894
199.5183
211.65282
211.18583
194.43979
173.8936
151.34668
129.87788
111.16791
95.898431
84.129555
75.692416
70.15431
66.44182
63.412489
60.710631
58.582464
57.326733
57.099604
57.275327
55.661177
49.763375
39.198244
27.080847
12.669043
3.4540063
2.20187
1.5641319
1.3210659
1.3177741
1.3627582
1.4499701
1.5545791
1.7041653
1.9347079
2.4231227
3.5749315
5.9975517
10.066477
15.650006
22.622886
30.937063
40.622996
51.78475
64.593579
79.272739
96.060446
115.12997
136.42873
159.4387
182.74743
203.67218
217.76882
219.18559
203.37341
182.89857
159.64609
137.00174
117.01891
100.58978
87.866998
78.569744
72.287005
68.324875
65.501752
62.871823
60.352174
58.344414
57.191843
57.043787
57.25428
55.637137
49.73068
39.168975
27.062406
12.662123
3.4311186
2.1809141
1.5430125
1.3134265
1.3157264
1.3611617
1.4483524
1.5529494
1.7020174
1.9303339
2.4104658
3.5373999
5.8440093
9.6947428
15.161167
22.038112
30.273653
39.898015
51.019392
63.818308
78.536205
95.444164
114.76836
136.53311
160.31943
184.80323
207.32886
223.32675
226.654
211.92551
191.78908
168.19189
144.56279
123.28288
105.5786
91.767218
81.605567
74.553611
70.029071
67.205133
64.946586
62.538353
60.111983
58.174048
57.09171
57.001745
57.237914
55.617749
49.704376
39.145505
27.047642
12.656585
3.4090037
2.163486
1.5251538
1.3017081
1.3092685
1.3596126
1.4467917
1.5514173
1.7000302
1.926441
2.3995785
3.5060421
5.773144
9.4733701
14.705434
21.484411
29.640869
39.200079
50.272898
63.047881
77.782267
94.776433
114.30507
136.46738
160.94254
186.50246
210.53555
228.36134
233.59839
220.04556
200.37622
176.73322
152.47815
130.02982
110.96874
95.925763
84.790507
76.996689
71.820782
68.615355
66.554365
64.631042
62.334425
59.949254
58.050441
57.016544
56.969772
57.225117
55.602138
49.683239
39.126695
27.035822
12.652152
3.3878995
2.1486046
1.5095592
1.2919729
1.2993446
1.354646
1.4452866
1.5499627
1.6981722
1.9229261
2.3900381
3.479286
5.7139115
9.368356
14.429989
20.963572
29.037556
38.530229
49.549278
62.289377
77.021852
94.073438
113.76302
136.26168
161.34556
187.8879
213.3376
232.91141
240.0384
227.73695
208.59389
185.04264
160.49826
137.23151
116.87046
100.44522
88.164395
79.560551
73.795329
70.065365
67.777332
66.196441
64.459526
62.210475
59.83753
57.959563
56.95955
56.945253
57.215066
55.589583
49.66627
39.111624
27.02636
12.648605
3.3679315
2.1356545
1.4956344
1.2836097
1.290674
1.3469911
1.4404757
1.5485654
1.69642
1.9197111
2.3815409
3.4560334
5.6634629
9.2806995
14.295745
20.645236
28.466097
37.887469
48.85034
61.548193
76.264023
93.348811
113.16183
135.94254
161.5624
188.99867
215.77698
237.01585
245.99744
234.99946
216.43893
193.02755
168.34855
144.65363
123.32755
105.49017
91.825436
82.211135
75.847053
71.695927
68.999418
67.308579
66.013468
64.372222
62.13557
59.759705
57.891914
56.915951
56.926312
57.207143
55.579498
49.652654
39.099553
27.018789
12.645767
3.3491812
2.1241951
1.4830488
1.2762622
1.2829089
1.3402047
1.433004
1.5440813
1.6947539
1.9167356
2.3738627
3.435484
5.6197454
9.2062375
14.184053
20.48602
28.113558
37.274808
48.17535
60.827116
75.515913
92.614079
112.51836
135.53336
161.62291
189.87074
217.89193
240.71209
251.49999
241.82881
223.90094
200.67821
175.89344
151.9697
130.1349
111.19701
96.011318
85.039334
77.854842
73.349513
70.395753
68.389466
67.065321
65.931125
64.332884
62.090629
59.70468
57.84099
56.882342
56.91159
57.200879
55.571401
49.641737
39.089888
27.012729
12.643496
3.331723
2.1138944
1.4715721
1.269684
1.2758006
1.3340557
1.4261908
1.5371761
1.68949
1.9139444
2.3668348
3.4170473
5.5812356
9.1419358
14.089561
20.35412
27.932638
36.893689
47.528045
60.125831
74.781573
91.878558
111.84712
135.0546
161.55377
190.53717
219.71758
244.03539
256.57103
248.22577
230.96457
207.98893
183.12029
158.98483
136.90866
117.40224
100.97319
88.374337
79.897583
74.811612
71.757704
69.6379
68.065436
66.954057
65.904419
64.320018
62.063945
59.665199
57.802273
56.856264
56.900087
57.195916
55.564907
49.632989
39.08215
27.007879
12.641679
3.3156356
2.1044977
1.4610368
1.2636901
1.2691907
1.3283604
1.4198754
1.53083
1.6815681
1.9053602
2.3603124
3.4002794
5.5467993
9.0855167
14.008354
20.243092
27.783417
36.693023
47.122275
59.448993
74.061317
91.148008
111.16017
134.52424
161.37885
191.02817
221.28618
247.01988
261.23474
254.19347
237.61831
214.94646
190.043
165.67387
143.37553
123.65906
106.59982
92.603135
82.407541
76.142067
72.778206
70.797599
69.227801
67.912624
66.916827
65.906908
64.321095
62.048349
59.636467
57.772582
56.835918
56.89106
57.191975
55.5597
49.62598
39.075955
27.003998
12.640225
3.3010017
2.0958035
1.451325
1.2581369
1.2629563
1.3229741
1.413884
1.5249069
1.6742804
1.893029
2.3407363
3.3848007
5.5155745
9.0352571
13.937456
20.148211
27.658446
36.528222
46.903006
59.021627
73.361054
90.42373
110.46544
133.95761
161.11959
191.37147
222.62769
249.69891
265.51346
259.73238
243.84931
221.53554
196.65988
172.07231
149.48667
129.59958
112.37692
97.676606
85.923834
77.876467
73.490367
71.475804
70.253802
69.029976
67.857816
66.918938
65.923432
64.328933
62.039453
59.615281
57.749644
56.819971
56.883951
57.188841
55.555527
49.620366
39.070998
27.000893
12.637978
3.2878972
2.0876465
1.4423554
1.2529114
1.2569987
1.3177765
1.4080901
1.519241
1.6674646
1.881995
2.3132243
3.3390845
5.4868456
8.9898686
13.874631
20.06585
27.552246
36.390894
46.72363
58.784372
72.915972
89.713243
109.76566
133.36541
160.79479
191.59253
223.77038
252.10516
269.42891
264.83974
249.63947
227.73655
202.96326
178.20479
155.30373
135.14232
117.83053
103.01141
90.469548
80.713646
74.522071
71.672986
70.675554
69.971263
68.955713
67.856154
66.940225
65.945536
64.339504
62.034576
59.599469
57.731811
56.807424
56.878336
57.186347
55.552184
49.615871
39.06703
26.995989
12.63389
3.2763725
2.0798831
1.4340699
1.2479239
1.2512395
1.3126643
1.4023861
1.5136897
1.6609057
1.8718777
2.2889572
3.2746917
5.4027501
8.9482794
13.81818
19.993281
27.460591
36.274823
46.574841
58.590946
72.661701
89.259097
109.07066
132.75235
160.4182
191.71424
224.74128
254.27052
273.00123
269.51356
254.96668
233.51952
208.93442
184.07831
160.88424
140.37624
122.84022
108.02159
95.395488
84.758894
76.728581
72.091197
70.458246
70.205387
69.84545
68.949539
67.881049
66.969306
65.968677
64.350627
62.03208
59.587539
57.717874
56.79752
56.873889
57.184359
55.549507
49.612271
39.060726
26.986989
12.627582
3.2664304
2.0723791
1.4264228
1.2431032
1.24562
1.3075494
1.3966772
1.5081259
1.654433
1.8623063
2.2669289
3.2176625
5.2830554
8.8275019
13.766713
19.928442
27.380289
36.175212
46.449734
58.431154
72.454999
88.991017
108.6253
132.13118
159.99692
191.75425
225.56564
256.22624
276.24925
273.75402
259.81184
238.84708
214.53606
189.67963
166.25071
145.3921
127.52216
112.54464
100.00386
89.305854
80.305333
73.72883
70.358206
69.662799
69.944244
69.809267
68.978027
67.91724
67.000008
65.99056
64.361186
62.030967
59.578451
57.706935
56.789683
56.870362
57.182774
55.547364
49.606516
39.049131
26.973101
12.617982
3.2580054
2.0649997
1.419369
1.2383952
1.2400998
1.3023603
1.3908828
1.5024343
1.6478989
1.8529793
2.2462644
3.1654944
5.1752828
8.6548599
13.618448
19.869661
27.308949
36.088414
46.342909
58.297414
72.284832
88.773424
108.35173
131.73553
159.54758
191.72302
226.26405
258.00209
279.19281
277.5642
264.16264
243.68538
219.71698
194.96715
171.3954
150.22739
131.99869
116.72308
104.08959
93.550769
84.50194
76.875189
71.497106
69.136363
69.150584
69.811074
69.821271
69.021722
67.956305
67.029176
66.010157
64.370671
62.030635
59.571471
57.698318
56.783469
56.867558
57.18151
55.543933
49.595897
39.031227
26.951963
12.603673
3.250949
2.0576088
1.4128516
1.2337613
1.2346574
1.297045
1.3849404
1.4965128
1.6411722
1.8436454
2.2262784
3.1161372
5.0748811
8.496708
13.407488
19.701404
27.2446
36.011696
46.250291
58.183743
72.142957
88.594687
108.12983
131.47745
159.27154
191.64077
226.8502
259.62327
281.85376
280.95221
268.01175
248.0085
224.42658
199.87721
176.2747
154.87719
136.31833
120.7077
107.81986
97.247616
88.419211
80.750929
74.256606
69.848867
68.280046
68.825408
69.753598
69.856715
69.06974
67.993853
67.055376
66.027139
64.378912
62.030724
59.566072
57.691509
56.778532
56.865329
57.179552
55.537599
49.579485
39.003951
26.920446
12.582985
3.2450249
2.0500683
1.4067977
1.2291775
1.229288
1.2915746
1.3788103
1.4902781
1.6341396
1.8340943
2.2064332
3.0679596
4.9780495
8.3466727
13.211205
19.464938
27.061111
35.942847
46.168822
58.085593
72.02282
88.446049
107.94767
131.26736
159.06828
191.62688
227.34943
261.10765
284.25269
283.93526
271.35475
251.79093
228.62148
204.34181
180.81461
159.29659
140.4757
124.55269
111.37001
100.58577
91.773271
84.374896
77.842706
72.268152
68.635365
67.68076
68.621639
69.739068
69.90133
69.116325
68.027827
67.078126
66.041542
64.385916
62.031019
59.56187
57.686117
56.774607
56.861957
57.176004
55.527805
49.55444
38.963226
26.874864
12.554349
3.2399194
2.0422424
1.4011145
1.2246328
1.2240009
1.2859465
1.3724807
1.4836731
1.6267129
1.8241551
2.186316
3.0196717
4.8816565
8.1991417
13.021951
19.241749
26.808183
35.746352
46.095983
57.999588
71.919445
88.320499
107.79634
131.09423
158.90127
191.56121
227.75445
262.48076
286.40588
286.5345
274.19496
254.9997
232.25309
208.29972
184.93058
163.40305
144.42437
128.24951
114.79503
103.76092
94.772726
87.429457
81.206823
75.597207
70.761332
67.7415
67.260347
68.495629
69.747492
69.947249
69.158713
68.057471
67.097449
66.053578
64.391779
62.031398
59.558583
57.681839
56.768613
56.855939
57.170575
55.512848
49.516958
38.904206
26.811738
12.516983
3.2352543
2.0339964
1.3956912
1.2201259
1.2188146
1.2801842
1.3659693
1.4766752
1.6188381
1.8137024
2.1656357
2.9702924
4.7831341
8.0493225
12.832569
19.023208
26.565931
35.482809
45.886654
57.922911
71.829064
88.212624
107.66852
130.9498
158.76194
191.50138
227.92953
263.52501
288.33981
288.76336
276.54081
257.60088
235.25092
211.68188
188.54505
167.09655
148.07445
131.74944
118.08102
106.82543
97.629736
90.139396
84.002159
78.733953
73.866141
69.618792
67.080866
66.963808
68.418869
69.766972
69.990421
69.195842
68.082737
67.113614
66.06353
64.396633
62.03179
59.556002
57.675225
56.757876
56.846814
57.162415
55.490437
49.462448
38.822233
26.729308
12.471767
3.2306053
2.0252034
1.3904025
1.2156601
1.2137498
1.2743334
1.3593229
1.4693019
1.610503
1.8026658
2.1442324
2.9191678
4.6804478
7.8931134
12.636771
18.800869
26.324906
35.226421
45.616077
57.699017
71.74858
88.118359
107.55856
130.82718
158.64402
191.44542
228.06052
264.08753
289.73152
290.65307
278.39323
259.56603
237.52811
214.38535
191.57391
170.2842
151.31097
134.95597
121.17616
109.75825
100.39181
92.729927
86.466817
81.307118
76.806513
72.531037
68.75018
66.58996
66.753017
68.372991
69.790643
70.029016
69.227572
68.103926
67.126992
66.071697
64.40062
62.032163
59.551884
57.663356
56.741607
56.833306
57.150479
55.45778
49.386362
38.714787
26.629473
12.421738
3.2255207
2.0157425
1.3851155
1.211238
1.2088225
1.2684538
1.35261
1.4616123
1.6017433
1.7910371
2.1220827
2.8660054
4.5721716
7.7271004
12.429015
18.567153
26.075534
34.966932
45.348259
57.42353
71.506621
88.034213
107.46218
130.7209
158.54205
191.39245
228.15538
264.52223
290.52079
291.9497
279.77942
260.8585
239.00101
216.27266
193.89228
172.87136
154.02573
137.73947
123.97794
112.50406
103.02984
95.242668
88.836297
83.565618
79.191103
75.303904
71.499318
68.087171
66.22272
66.601773
68.346276
69.814714
70.062455
69.254236
68.121496
67.137976
66.07836
64.403878
62.032497
59.544517
57.645494
56.717542
56.814019
57.133691
55.412055
49.285967
38.584043
26.518898
12.371553
3.2195266
2.0054937
1.3796967
1.2068572
1.2040385
1.2626081
1.3459104
1.4537017
1.5926433
1.7788765
2.0993017
2.8109013
4.4576176
7.5487215
12.204532
18.315228
25.80907
34.693701
45.072066
57.145427
71.227955
87.768843
107.37548
130.62673
158.45158
191.34106
228.22142
264.85456
291.1252
292.69553
280.60781
261.46835
239.57593
217.20419
195.3228
174.72125
156.11608
139.97571
126.3426
114.95497
105.48488
97.640284
91.146096
85.753062
81.277569
77.529904
74.130908
70.699734
67.578675
65.945965
66.492129
68.331312
69.83723
70.090829
69.276377
68.135943
67.146943
66.083774
64.408637
62.033182
59.533756
57.61936
56.683227
56.787917
57.111326
55.351429
49.162787
38.438476
26.407856
12.325925
3.2121286
1.994337
1.3740151
1.2025079
1.1993892
1.2568505
1.3393015
1.4456876
1.5833268
1.7663093
2.0761281
2.7543445
4.3369519
7.3565203
11.959584
18.03909
25.517499
34.396878
44.775796
56.852601
70.940097
87.489411
107.07978
130.54038
158.36904
191.28977
228.26378
265.10636
291.58725
293.25636
281.01276
261.53269
239.18059
217.02898
195.67393
175.62971
157.44115
141.55513
128.12956
116.95426
107.64436
99.860286
93.351078
87.89916
83.315944
79.473737
76.224634
73.21332
70.077942
67.186696
65.735836
66.411784
68.323444
69.857315
70.114555
69.294603
68.147749
67.154231
66.091907
64.417383
62.034956
59.518777
57.582742
56.636893
56.755227
57.08357
55.27653
49.024338
38.291514
26.306796
12.288025
3.2028028
1.9821395
1.3679457
1.1981727
1.1948508
1.2512179
1.3328451
1.4376929
1.5739412
1.7535142
2.0528923
2.6971654
4.2112577
7.1504184
11.691854
17.733912
25.193663
34.06728
44.448432
56.532164
70.629762
87.19262
106.80519
130.20591
158.2899
191.2372
228.28626
265.29453
291.94009
293.67785
281.28619
261.36587
238.24727
215.59936
194.74081
175.35929
157.78287
142.33841
129.22279
118.34565
109.34032
101.7862
95.385444
89.951724
85.330765
81.390565
78.05089
75.197525
72.493768
69.592681
66.883012
65.575134
66.352278
68.319776
69.874701
70.134189
69.30951
68.157353
67.165291
66.106895
64.431696
62.039308
59.499544
57.53469
56.579088
56.718472
57.051951
55.191594
48.883194
38.157107
26.22278
12.258863
3.1909703
1.9687417
1.36137
1.1938278
1.1903857
1.2457252
1.326578
1.4298262
1.5646362
1.7407003
2.0299729
2.6404255
4.082485
6.9319221
11.400878
17.396577
24.831727
33.696618
44.079595
56.171836
70.28273
86.863757
106.50291
129.94724
157.90811
191.17876
228.29139
265.43228
292.20871
293.99744
281.47077
261.14602
237.33262
213.64871
192.29045
173.65789
156.86668
142.10553
129.48879
119.0076
110.40282
103.24096
97.129595
91.841998
87.263724
83.30049
79.868954
76.927344
74.387856
71.928066
69.212654
66.646618
65.451405
66.30775
68.318522
69.889448
70.150311
69.321645
68.171967
67.185764
66.131031
64.455343
62.049408
59.478141
57.477514
56.514528
56.682686
57.019183
55.10411
48.752931
38.04491
26.158091
12.237733
3.1759509
1.9539351
1.3541705
1.1894453
1.1859444
1.2403642
1.3205065
1.4221669
1.5555399
1.7280779
2.0077442
2.585268
3.9532388
6.7041479
11.088422
17.026275
24.427843
33.278073
43.659832
55.759918
69.885258
86.487046
106.15664
129.6479
157.687
190.74765
228.27538
265.52949
292.41302
294.24099
281.59929
260.9152
236.46762
211.96663
189.35253
170.21273
154.40155
140.55966
128.71683
118.81628
110.7067
104.04388
98.399598
93.447982
89.043491
85.140028
81.695227
78.665379
76.038918
73.748391
71.482214
68.914074
66.461806
65.355562
66.274108
68.318593
69.901782
70.163473
69.340172
68.199076
67.218749
66.17006
64.494624
62.071374
59.460544
57.418664
56.452419
56.65375
56.988307
55.022522
48.643356
37.958247
26.111194
12.223087
3.1568884
1.9374338
1.3462265
1.1849949
1.1814683
1.235106
1.3146068
1.4147559
1.5467421
1.715829
1.9865245
2.5327484
3.8264404
6.4715836
10.758619
16.62504
23.980922
32.807106
43.181318
55.285706
69.424181
86.047085
105.74885
129.28987
157.40952
190.60091
227.81374
265.58527
292.56894
294.42777
281.69056
260.7016
235.69449
210.43565
186.91733
166.33827
150.02152
137.38748
126.61002
117.58114
110.14196
104.06914
99.00728
94.580887
90.546276
86.835649
83.461922
80.424997
77.712254
75.335374
73.242423
71.13001
68.678797
66.316771
65.280922
66.248468
68.319338
69.911991
70.183793
69.374623
68.242851
67.272122
66.23317
64.559472
62.115272
59.457345
57.370093
56.403365
56.635417
56.961674
54.95324
48.55821
37.895276
26.078677
12.213247
3.1326161
1.9188306
1.3374029
1.1804449
1.1768919
1.2299042
1.3088277
1.407594
1.5382839
1.7040833
1.9665415
2.4836922
3.7049085
6.2395788
10.417751
16.198014
23.493332
32.282395
42.638824
54.740293
68.88738
85.529021
105.26228
128.85387
157.05637
190.38066
227.79158
265.17917
292.68107
294.57323
281.7569
260.5154
235.03546
209.09686
184.72242
163.18873
145.29438
132.22697
122.86904
115.03429
108.54968
103.22511
98.829528
95.048195
91.580117
88.262283
85.093679
82.134886
79.418772
76.956503
74.77743
72.841399
70.851209
68.492929
66.202571
65.222523
66.228774
68.320375
69.928227
70.221914
69.430349
68.313906
67.358499
66.334127
64.663523
62.193877
59.480771
57.343256
56.373938
56.627523
56.940405
54.898984
48.496069
37.851544
26.056827
12.206776
3.1012426
1.8975251
1.3275332
1.175761
1.1721445
1.2246985
1.3030945
1.4006439
1.5301557
1.6929055
1.9479103
2.4386111
3.5909697
6.0136318
10.073628
15.753271
22.971303
31.706721