/*--------------------------------*- C++ -*----------------------------------*\
| =========                 |                                                 |
| \\      /  F ield         | OpenFOAM: The Open Source CFD Toolbox           |
|  \\    /   O peration     | Version:  2206                                  |
|   \\  /    A nd           | Website:  www.openfoam.com                      |
|    \\/     M anipulation  |                                                 |
\*---------------------------------------------------------------------------*/
FoamFile
{
    version     2.0;
    format      ascii;
    arch        "LSB;label=32;scalar=64";
    class       volScalarField;
    location    "0";
    object      omega_0;
}
// * * * * * * * * * * * * * * * * * * * * * * * * * * * * * * * * * * * * * //

dimensions      [0 0 -1 0 0 0 0];

internalField   nonuniform List<scalar> 
19794
(
2.8202638
3.1137005
2.2479751
3.1304911
2.4989214
1.8440401
3.0921837
2.5474991
2.0375838
1.6548723
2.939647
2.5545215
2.1164902
1.8064422
1.6083181
2.7430152
2.4889274
2.1934204
1.9038751
1.765858
1.621208
2.5450397
2.4011002
2.2385455
2.0228921
1.8928474
1.8181814
1.6640721
2.3837896
2.3166518
2.2666048
2.1292803
2.0552845
1.9831086
1.9321825
1.731867
2.2760501
2.2532352
2.2792328
2.212112
2.2094586
2.1847141
2.1578944
2.0977252
1.824983
2.2259779
2.2154022
2.281442
2.2620484
2.328548
2.3704482
2.4188934
2.397828
2.3098912
1.9438071
2.2293026
2.2033059
2.2776298
2.2828638
2.397889
2.5074105
2.6509494
2.7272646
2.6950831
2.5637135
2.0883532
2.2762544
2.2154818
2.272428
2.2827323
2.4233974
2.5799123
2.8167596
3.0099691
3.1032079
3.0430745
2.8587529
2.2603667
2.3536021
2.2492838
2.2698594
2.2693142
2.4183655
2.5973649
2.900861
3.2068396
3.4449903
3.5386374
3.4435138
3.2008028
2.4645376
2.4472567
2.2994716
2.2730975
2.2489926
2.3937627
2.5777593
2.9163551
3.3048822
3.6803963
3.9456196
4.0356617
3.9049952
3.6014382
2.7087919
2.545562
2.3587577
2.2826375
2.2269503
2.3574812
2.5353313
2.8860618
3.321271
3.8003462
4.2242038
4.5133572
4.6031892
4.4420496
4.0778802
3.0046408
2.6410947
2.4201971
2.2962861
2.2060669
2.3155832
2.479492
2.8282004
3.2829276
3.8261115
4.3707699
4.839174
5.1560761
5.2561516
5.0755293
4.6542429
3.3683432
2.730246
2.4790662
2.3110217
2.1866546
2.2721544
2.4170539
2.7544481
3.2116431
3.7879031
4.4110679
5.0169279
5.5319247
5.8873595
6.0159781
5.8343921
5.3644128
3.8232661
2.8118203
2.5331182
2.3248588
2.1679172
2.2289526
2.3530529
2.6725431
3.1215501
3.7104937
4.3780815
5.0773844
5.7446404
6.314398
6.7267423
6.9122481
6.7590254
6.2570714
4.4039347
2.8857083
2.5817422
2.3373811
2.1497737
2.1865132
2.2903034
2.5880647
3.0216064
3.6106063
4.2989267
5.0555908
5.8307685
6.5649695
7.2038348
7.7009229
7.9856535
7.9067253
7.4041027
5.1626936
2.9519514
2.624956
2.3490719
2.1334154
2.1458574
2.2301154
2.5044738
2.9178604
3.4989956
4.1927351
4.9799825
5.8265049
6.682513
7.4940175
8.2235737
8.8459649
9.2927695
9.3606326
8.9148542
6.1802466
3.0102896
2.6626884
2.3603956
2.1205247
2.1091224
2.1739332
2.4238006
2.8139647
3.3826301
4.0724249
4.8715556
5.7602064
6.7031968
7.6492183
8.5534762
9.4045765
10.210776
10.913634
11.244583
10.960688
7.5801274
3.0601819
2.6944622
2.3712113
2.1122084
2.0787405
2.1240789
2.3480515
2.7121289
3.2654152
3.946507
4.7454962
5.6538658
6.6534371
7.7040496
8.7532926
9.771775
10.787805
11.862468
12.963939
13.748366
13.816517
9.5387777
3.1011265
2.7194794
2.3806496
2.1083924
2.056214
2.0830077
2.2798549
2.6144927
3.1493896
3.819714
4.6123467
5.5248134
6.5549106
7.680423
8.8540553
10.024042
11.185849
12.427766
13.894662
15.61505
17.171296
17.922699
12.253963
3.1330244
2.7369799
2.387402
2.107847
2.0414576
2.052056
2.2217846
2.5237749
3.0361341
3.6942613
4.4782005
5.3859758
6.4267018
7.5977648
8.8696267
10.186101
11.499333
12.843686
14.397791
16.440571
19.127594
21.995514
23.936038
15.781381
3.1563594
2.7466199
2.3902274
2.1087152
2.0329692
2.0308251
2.1751731
2.4427367
2.9275073
3.571287
4.3458419
5.2452554
6.2843551
7.4761663
8.8143641
10.258846
11.742894
13.227904
14.807968
16.798007
19.694056
23.908354
28.992182
32.613438
19.668722
3.1721235
2.7486609
2.3883862
2.1092242
2.0285887
2.0175175
2.1395875
2.3731355
2.8254523
3.4517089
4.2162662
5.1063556
6.1380091
7.3338951
8.7081154
10.247513
11.897646
13.579609
15.27253
17.161303
19.767635
23.944287
30.604218
39.293699
44.17334
22.644209
3.1815765
2.7439053
2.3817957
2.1081882
2.0263462
2.0098519
2.1133011
2.3152269
2.7314386
3.336349
4.0897665
4.9704091
5.9926627
7.1837637
8.5718069
10.169715
11.953904
13.850703
15.767422
17.714353
20.013949
23.504472
29.633818
40.236313
54.131728
56.987053
23.08558
3.1859939
2.7334756
2.3709045
2.1051134
2.0249353
2.0059086
2.0942674
2.2681462
2.6462749
3.2258013
3.9663903
4.8373836
5.8498979
7.0325183
8.4214014
10.048728
11.923968
14.00831
16.202277
18.39821
20.658914
23.515543
28.29678
37.455787
54.291019
73.640092
66.773327
20.441563
3.1865075
2.7185686
2.3564394
2.1000005
2.0236909
2.0044544
2.0808604
2.2306908
2.5704047
3.1205449
3.8461131
4.7068946
5.7096486
6.8825754
8.2659571
9.9041857
11.832779
14.054752
16.509245
19.062083
21.590751
24.244778
27.873643
34.577427
48.505186
74.39133
94.686175
68.509491
16.072639
3.1840546
2.7002977
2.339181
2.0930705
2.0223031
2.0047621
2.072011
2.2018271
2.504273
3.0212794
3.7290615
4.578618
5.5713593
6.7341522
8.109218
9.7481824
11.704202
14.015341
16.673687
19.586454
22.572886
25.499018
28.65641
33.38454
43.019459
64.441591
100.76598
109.9888
60.655298
12.873109
3.1793715
2.6796383
2.3198371
2.0845732
2.0205578
2.0062743
2.0669156
2.1806658
2.4483396
2.9291254
3.6157505
4.4525533
5.4345981
6.5867668
7.9520718
9.5864376
11.554299
13.918751
16.719027
19.929344
23.410643
26.920252
30.323478
34.144545
40.487797
54.707888
87.346167
129.46991
111.66944
49.977328
11.287684
3.173011
2.6574146
2.2990123
2.0747158
2.0182285
2.0084084
2.06473
2.1661744
2.4027361
2.8454427
3.5071344
4.3291474
5.2993379
6.440026
7.7943754
9.4210053
11.391635
13.786218
16.679275
20.1085
24.019324
28.205763
32.344863
36.327296
41.061056
49.870185
71.422266
118.41302
151.11393
101.10694
43.042187
10.317992
3.1653678
2.634317
2.2772347
2.0636709
2.0150869
2.0105519
2.0644905
2.1570195
2.3669067
2.7713608
3.4043916
4.2092193
5.1660068
6.293947
7.6359336
9.2524144
11.220102
13.630344
16.582404
20.163605
24.404833
29.205632
34.264008
39.15813
43.861726
49.924573
62.679146
95.916907
154.72615
155.24279
90.461663
37.987777
9.6995129
3.1567103
2.610908
2.2549689
2.0516082
2.0109539
2.0121468
2.0652245
2.1516779
2.3395572
2.7073445
3.3085877
4.0937307
5.035358
6.1489851
7.4768899
9.0808579
11.041338
13.457785
16.446695
20.131382
24.612423
29.904009
35.833294
41.963297
47.76296
53.411459
61.557339
80.987748
131.30058
180.5762
149.76091
80.781797
34.422183
9.2836086
3.1472305
2.5876405
2.2326272
2.0387171
2.0057414
2.0127665
2.0660971
2.1486835
2.3189338
2.6530453
3.2204139
3.9835271
4.9082476
6.0058953
7.3177879
8.9067143
10.85618
13.271905
16.282884
20.038064
24.690111
30.350748
36.999568
44.351298
51.786814
58.685835
65.688372
77.41205
108.64352
167.77258
191.31538
140.48372
73.019698
31.899174
8.9902414
3.1370769
2.5648647
2.2105715
2.0252163
1.999465
2.0121498
2.0664949
2.1468287
2.3032206
2.6074604
3.1401068
3.8791859
4.7854428
5.8655444
7.1594661
8.7306981
10.665377
13.074513
16.096923
19.900352
24.675219
30.608286
37.814618
46.20799
55.333536
64.345977
72.639289
81.865867
100.38926
142.1287
193.28891
193.75758
130.61553
67.108439
30.083594
8.7755336
3.1262864
2.5428386
2.1891
2.0113396
1.9922314
2.0101956
2.0660373
2.1452385
2.2908391
2.5692481
3.0675232
3.7810006
4.6675209
5.7287554
7.0029059
8.553824
10.469911
12.866898
15.892057
19.728038
24.59312
30.729302
38.359007
47.581482
58.19291
69.496428
80.416581
90.690821
104.2066
128.62329
170.71615
212.51412
190.74351
121.73253
62.68102
28.75113
8.6142055
3.1145963
2.5217425
2.168455
1.9973182
1.9842072
2.0069337
2.0645425
2.1433493
2.2805762
2.5370219
3.0022706
3.6890508
4.5548624
5.5962274
6.8490965
8.3772929
10.271071
12.650405
15.670291
19.526421
24.459276
30.751721
38.706433
48.5744
60.399139
73.780815
87.713504
101.0478
114.75832
130.55993
154.19031
198.44477
224.90027
184.96381
114.33987
59.365255
27.755557
8.4907666
3.1013001
2.501651
2.1488376
1.9833609
1.9755914
2.0024866
2.0619792
2.140844
2.2715755
2.5095291
2.9438212
3.6032898
4.4476971
5.4685166
6.6989547
8.2023749
10.070399
12.426698
15.433408
19.298417
24.281919
30.699363
38.912824
49.288733
62.08043
77.202474
93.958986
111.06703
127.94396
141.9223
154.29041
181.42417
223.12728
231.31425
178.31278
108.41989
56.864875
27.000609
8.3951371
3.0913388
2.4822237
2.1303773
1.9696287
1.9665927
1.997034
2.0584171
2.1375841
2.2632713
2.4857224
2.891583
3.5236049
4.3461559
5.3460508
6.5532818
8.0303061
9.869572
12.197789
15.183526
19.046251
24.065058
30.584696
39.014349
49.805817
63.375736
79.917359
99.099788
119.87458
141.11562
157.18199
165.89494
179.75875
209.04342
243.23674
233.30526
171.88673
103.76144
54.962391
26.42138
8.3204518
3.090107
2.4693025
2.1128649
1.9562353
1.9574133
1.9907746
2.0539861
2.1335517
2.2553138
2.4647643
2.8449358
3.4498364
4.2502994
5.2291467
6.4127483
7.8622207
9.6702756
11.965918
14.923254
18.772498
23.811206
30.412966
39.029678
50.179966
64.401257
82.110723
103.31961
127.32665
152.9841
172.82155
182.40117
191.21336
206.54828
235.42011
258.22193
232.5043
166.18686
100.11908
53.502028
25.97295
8.2617598
3.0888362
2.4675178
2.1018591
1.9432607
1.9482304
1.9838958
2.0488432
2.1288027
2.2475045
2.4460043
2.8032542
3.3817783
4.1601339
5.118026
6.2778892
7.6991044
9.4740986
11.733393
14.655588
18.480472
23.523248
30.186562
38.965509
50.439248
65.237558
83.944361
106.85897
133.63427
163.276
187.12721
199.52544
208.5791
217.90513
233.79259
258.99386
268.46095
230.2267
161.35993
97.273503
52.372313
25.623295
8.2154204
3.0875517
2.4654821
2.0995338
1.9354113
1.9391617
1.9765813
2.0431536
2.1234278
2.2397448
2.4289496
2.7659304
3.3191701
4.0756066
5.0128152
6.1491013
7.5417672
9.2824489
11.502422
14.383675
18.174132
23.205214
29.908211
38.823245
50.592259
65.927284
85.535211
109.93474
139.10151
172.23882
199.7201
215.20443
226.7579
236.10747
245.62588
260.23732
278.73103
274.88116
227.36144
157.37687
95.046502
51.492623
25.349144
8.178719
3.08627
2.463234
2.0971305
1.9332513
1.9336661
1.9690809
2.0370806
2.1175238
2.231998
2.4132351
2.7323945
3.2616964
3.9966044
4.9135528
6.0266512
7.3908383
9.0965134
11.275006
14.110595
17.857764
22.862234
29.582439
38.604398
50.638043
66.482423
86.948624
112.71005
144.00334
180.25763
210.93287
229.02366
243.26023
255.25613
265.05692
273.53075
284.55645
294.32544
278.54285
224.43188
154.13778
93.298861
50.803941
25.133275
8.149584
3.0849915
2.4608107
2.0946236
1.9311786
1.9318043
1.9645373
2.0308098
2.1112021
2.2242627
2.3985894
2.7021317
3.2090011
3.9229556
4.8201905
5.9106777
7.2467624
8.9172337
11.052855
13.839168
17.535632
22.500074
29.215665
38.313327
50.574931
66.897953
88.203875
115.284
148.55051
187.66004
221.26956
241.47304
257.63502
272.30385
285.50588
294.91371
300.40549
305.7384
306.08359
280.37398
221.70722
151.52528
91.923425
50.26245
24.962729
8.1264152
3.0837094
2.4582476
2.092039
1.9291779
1.9300265
1.9628435
2.0269646
2.1046851
2.2165734
2.3848076
2.674688
3.1607035
3.8544391
4.7326041
5.801207
7.1098155
8.7453101
10.837357
13.571844
17.211705
22.124609
28.815508
37.957562
50.405513
67.165851
89.290998
117.69244
152.88516
194.68233
231.09706
253.2216
270.61759
286.72746
303.20058
317.36156
324.57462
325.00841
323.31684
314.64877
281.07428
219.3018
149.42783
90.837968
49.835205
24.827639
8.1079667
3.0824244
2.4555774
2.0893848
1.9272364
1.9283016
1.9612884
2.0253757
2.1007489
2.2090629
2.3717626
2.6496726
3.1164121
3.7907991
4.6506086
5.6981651
6.9801206
8.5812168
10.629584
13.310662
16.889497
21.741414
28.389992
37.546901
50.137693
67.283936
90.191454
119.92386
157.07493
201.50108
240.621
264.66869
283.13861
299.6169
317.46237
336.21829
349.9073
352.6329
346.43776
337.35289
320.74549
281.12376
217.24384
147.74804
89.979295
49.49716
24.720417
8.093262
3.0811465
2.4528299
2.086664
1.9253438
1.9266252
1.9598423
2.0239089
2.0990523
2.2046521
2.3595193
2.626784
3.0757315
3.7317506
4.5739778
5.6014051
6.8576752
8.4252287
10.430308
13.057237
16.571968
21.35547
27.946848
37.092076
49.783372
67.258389
90.893534
121.94696
161.11869
208.2304
250.00469
275.94876
295.6514
312.29976
329.84888
350.50574
370.77679
381.65021
377.82907
364.31645
348.25438
325.02652
280.83043
215.51797
146.40447
89.298605
49.229099
24.635175
8.0815318
3.0765233
2.4500442
2.0839022
1.9234924
1.9249865
1.958483
2.0225332
2.0975361
2.2026319
2.3524729
2.6059429
3.0383037
3.6769718
4.5024486
5.5107276
6.7423759
8.2774526
10.240038
12.812787
16.261529
20.971071
27.493128
36.603699
49.35651
67.102286
91.397931
123.73415
164.97718
214.90218
259.39231
287.17826
308.17756
325.31635
342.24574
362.32223
385.70873
405.50803
411.00234
399.40258
378.74362
356.57303
328.01413
280.3818
214.08964
145.33048
88.758087
49.016157
24.567321
8.0721692
3.0673378
2.4409826
2.0811703
1.9216781
1.9233749
1.9571927
2.0212355
2.0961589
2.2008362
2.3492499
2.594046
3.0040455
3.6261362
4.4356941
5.4258846
6.6340501
8.1378629
10.059057
12.578183
15.960069
20.591778
27.034973
36.091582
48.871333
66.832796
91.71648
125.27282
168.60719
221.49264
268.84527
298.51356
320.75562
338.52356
355.31177
374.26835
397.31473
422.0379
438.66814
436.78366
417.17431
390.11779
362.86073
330.09799
279.88643
212.91822
144.47218
88.328269
48.846761
24.513253
8.0646921
3.0575193
2.4266004
2.0724623
1.9199068
1.9217914
1.9559574
2.0200004
2.0948921
2.1992095
2.3464625
2.5885479
2.9841632
3.5792437
4.3733481
5.3465393
6.5324593
8.0063392
9.8874705
12.353986
15.669001
20.220453
26.577569
35.564386
48.341203
66.468384
91.869057
126.5674
171.97728
227.96525
278.36126
310.02702
333.55771
351.85297
368.66482
387.14326
409.01448
434.20354
457.84359
468.70902
458.46615
431.40748
398.95603
367.5971
331.55676
279.40341
211.96355
143.78629
87.986074
48.71185
24.470132
8.0587191
3.0477562
2.4151064
2.0586209
1.9143357
1.9202553
1.954766
2.0188146
2.0937134
2.1977199
2.3440025
2.5838528
2.97491
3.5516609
4.3154669
5.272277
6.4372459
7.8826699
9.7252495
12.140521
15.389332
19.859327
26.125195
35.029534
47.778093
66.027232
91.877856
127.63506
175.072
234.27934
287.94439
321.7283
346.66522
365.52244
382.09554
400.22645
421.75713
446.24385
471.58678
491.38522
494.68591
476.11166
442.59731
405.77137
371.16778
332.58477
278.96198
211.18907
143.23813
87.713386
48.604306
24.435724
8.0539465
3.0382778
2.4055702
2.0468513
1.9058176
1.9154072
1.9536099
2.0176706
2.0926054
2.1963404
2.3417974
2.5797584
2.9670778
3.5385701
4.2810772
5.2031677
6.347936
7.7664906
9.5722396
11.937921
15.121733
19.51009
25.68129
34.49329
47.192401
65.525499
91.765028
128.50006
177.89253
240.38429
297.59462
333.68681
360.08278
379.6526
395.92807
413.12028
434.36976
459.25397
484.83488
507.70284
521.33882
516.33475
490.1516
451.30024
411.01241
373.86917
333.3156
278.57393
210.56284
142.80001
87.495919
48.518521
24.408253
8.0501313
3.0291993
2.3974484
2.0365271
1.898725
1.9079546
1.9499021
2.0165672
2.0915536
2.1950495
2.3397941
2.5761288
2.960317
3.5275341
4.2644307
5.1617668
6.2646085
7.6572802
9.4280878
11.74614
14.866611
19.173962
25.248555
33.960837
46.593272
64.977396
91.551322
129.18933
180.45686
246.2374
307.25883
345.98583
373.95142
394.23795
410.40711
426.33671
446.19538
471.49746
498.8111
523.09516
540.96141
547.03891
533.90288
501.16803
458.03483
415.04489
375.92329
333.84044
278.24133
210.05772
142.44979
87.322384
48.450048
24.38631
8.0470819
3.0205873
2.3904007
2.0272709
1.8926214
1.9014316
1.9441853
2.01304
2.0905432
2.193831
2.3379517
2.5728635
2.954382
3.5180582
4.2504755
5.1413412
6.2141667
7.5551404
9.2922366
11.564879
14.624122
18.851794
24.82906
33.436344
45.988204
64.395017
91.255
129.72866
182.79278
251.82884
316.83813
358.58048
388.47326
409.48275
425.56016
440.39034
458.01113
481.95013
511.12716
538.88916
559.27005
570.31873
568.42678
547.9111
509.74796
463.24019
418.1553
377.49428
334.22146
277.96117
209.65106
142.1698
87.18383
48.395367
24.368781
8.044644
3.0124899
2.3841836
2.0188763
1.8872513
1.8955808
1.9391156
2.0075597
2.0873032
2.1926711
2.336238
2.569887
2.949091
3.5097882
4.2385675
5.1243261
6.1888228
7.4925784
9.1648493
11.39357
14.394084
18.544092
24.424366
32.923164
45.383451
63.788698
90.89201
130.14073
184.93076
257.1752
326.2485
371.30785
403.64174
425.71984
441.65839
455.45728
470.79345
491.68838
520.23699
552.00034
577.68011
592.00357
595.36642
585.84696
558.96398
516.41081
467.26876
420.56305
378.70288
334.50115
277.7281
209.32411
141.94593
87.073168
48.351692
24.354771
8.0426941
3.004953
2.3786131
2.0111994
1.882437
1.8902173
1.9345211
2.0025627
2.0823106
2.1890013
2.3346223
2.5671411
2.9443082
3.5024586
4.2282431
5.1099074
6.16785
7.4605445
9.085855
11.232501
14.17597
18.250903
24.035554
32.42394
44.784178
63.167284
90.476141
130.445
186.8987
262.30866
335.46491
384.00826
419.22603
442.9948
459.15011
471.91012
485.06248
502.3572
527.46142
560.16892
592.42749
613.59967
620.55383
616.20333
599.8367
567.63784
521.58505
470.39499
422.43433
379.63798
334.70868
277.53593
209.06153
141.76692
86.984758
48.31679
24.343571
8.0411345
2.9980245
2.3735476
2.0041356
1.8780447
1.8852235
1.9302647
1.9979307
2.0777267
2.1834404
2.3296013
2.5645732
2.93993
3.4958709
4.2191534
5.0974963
6.1502074
7.4341991
9.0445998
11.131404
13.970298
17.971823
23.663094
31.940673
44.194639
62.538296
90.019345
130.65815
188.7209
267.26421
344.50718
396.61626
434.9836
461.0056
478.10089
490.27194
501.37666
515.0862
535.28945
564.78608
600.35011
630.74249
645.60249
644.75541
633.23353
610.97597
574.43109
525.61042
472.82917
423.89451
380.36525
334.86428
277.37858
208.85082
141.62376
86.914102
48.288893
24.334617
8.0398873
2.9917556
2.3688745
1.9976113
1.8739697
1.880508
1.9262384
1.9935361
2.0734514
2.1783119
2.3222144
2.5567226
2.9358628
3.489873
4.2110335
5.0866452
6.135136
7.4121918
9.0108645
11.077489
13.839718
17.707797
23.306867
31.474537
43.618224
61.908139
89.532032
130.79454
190.41802
272.07269
353.4127
409.14081
450.80296
479.4158
498.10672
510.55722
520.28727
530.76225
545.76996
569.27577
602.62827
639.23493
665.66943
673.2435
664.84785
646.99079
619.8046
579.75229
528.75049
474.73122
425.03822
380.9335
334.98206
277.25037
208.68184
141.50927
86.857627
48.266597
24.327458
8.037952
2.9861939
2.3645016
1.9915765
1.8701294
1.8759974
1.9223524
1.9892859
2.0693645
2.1735039
2.3154825
2.545357
2.9236271
3.4843344
4.2036866
5.0770194
6.1220559
7.3935275
8.9828707
11.033629
13.768501
17.538402
22.968546
31.025944
43.057242
61.282143
89.023269
130.86668
192.00808
276.75947
362.21918
421.62297
466.68696
498.07435
518.73018
532.21109
541.66066
549.92992
560.31582
576.91759
603.5871
639.72152
675.47938
696.48127
696.56041
681.28863
658.02337
626.78769
583.92619
531.20753
476.2226
425.93713
381.37932
335.07197
277.14634
208.5464
141.41771
86.812476
48.248767
24.316286
8.0344278
2.9813749
2.3603483
1.9859962
1.8664579
1.8716333
1.9185292
1.985101
2.0653627
2.1688679
2.3092052
2.5350141
2.9060548
3.4678516
4.1969447
5.0683651
6.1105329
7.3774454
8.959292
10.997452
13.71083
17.443748
22.749476
30.597843
42.513039
60.664253
88.500834
130.88571
193.50659
281.3447
370.95986
434.10936
482.68661
516.98934
539.79157
554.68358
564.72757
572.20334
579.45673
589.88789
607.99485
637.26631
674.8527
708.15937
722.96452
715.89518
694.61157
666.83342
632.30873
587.20676
533.13606
477.39571
426.64576
381.73028
335.14114
277.06217
208.43789
141.34447
86.776367
48.22089
24.295909
8.0289969
2.9773114
2.3563392
1.9808435
1.8629025
1.867372
1.9147028
1.9809117
2.0613542
2.1642851
2.3031728
2.5253491
2.8900333
3.4442424
4.1770877
5.0604721
6.10024
7.3633739
8.9391175
10.96718
13.663518
17.367397
22.623687
30.318707
41.99069
60.057292
87.970819
130.86135
194.92717
285.8433
379.66188
446.64454
498.86525
536.23154
561.31633
577.76788
588.80731
596.53667
602.46276
608.7283
619.03975
638.27975
669.34328
707.07958
736.82104
745.28084
731.73561
705.34068
673.853
636.67613
589.79099
534.65419
478.32105
427.20583
382.00737
335.19471
276.99423
208.35097
141.28589
86.719823
48.170019
24.264531
8.020748
2.9739826
2.3523988
1.9760915
1.8594233
1.8631834
1.9108196
1.9766585
2.0572559
2.1596521
2.2972075
2.5160248
2.874975
3.4225204
4.1488119
5.0374863
6.0909114
7.3508856
8.9215823
10.941445
13.624163
17.305061
22.522524
30.153237
41.649333
59.469884
87.438132
130.80141
196.28164
290.26685
388.34569
459.26694
515.28965
555.89229
583.40658
601.50896
613.66223
622.10368
627.96324
632.29956
637.33637
647.18248
667.02836
699.01378
735.82936
761.40925
763.81275
744.60634
713.94764
679.44065
640.13452
591.83118
535.85238
479.05274
427.64945
382.22668
335.23642
276.93949
208.28137
141.19395
86.616553
48.091703
24.216925
8.0084878
2.9713276
2.3484514
1.9717056
1.8559922
1.859052
1.9068399
1.9722956
2.0529944
2.1548771
2.2911547
2.5067558
2.8603431
3.4018764
4.1225732
5.0050648
6.0640573
7.3396308
8.9061143
10.919219
13.590909
17.253473
22.440242
30.020444
41.438474
59.089384
86.916668
130.7128
197.57934
294.62534
397.02666
472.00454
532.02148
576.07719
606.19953
626.04731
639.34353
648.62277
654.98124
658.87865
661.30443
664.74664
673.71712
693.613
725.73996
760.88749
782.14503
779.0399
755.00619
720.83646
683.88769
642.87643
593.44522
536.80027
479.63253
428.00149
382.40061
335.26907
276.89545
208.17146
141.02577
86.457541
47.972926
24.146293
7.990838
2.9692424
2.3444206
1.9676398
1.852592
1.8549748
1.902742
1.9677933
2.0485095
2.1498813
2.2848805
2.4972989
2.8456727
3.381562
4.0973834
4.9747257
6.0266564
7.3076015
8.8922553
10.899731
13.562351
17.210111
22.372428
29.912709
41.269333
58.839329
86.597094
130.61711
198.82892
298.92621
405.71998
484.875
549.1024
596.89019
629.86689
651.58744
666.02447
676.12513
683.17477
687.34541
688.86356
688.95316
690.43025
698.14572
717.60415
749.26792
782.32134
799.40616
791.45727
763.3787
726.3432
687.42783
645.05305
594.72449
537.55164
480.09277
428.28128
382.53878
335.29472
276.82376
207.96956
140.76654
86.216307
47.796794
24.044874
7.9665514
2.9675859
2.3402321
1.9638341
1.8492157
1.8509595
1.8985235
1.9631425
2.04376
2.1446043
2.2782733
2.4874489
2.8305619
3.3609187
4.0723031
4.945314
5.9913601
7.2637103
8.8531815
10.882358
13.537445
17.173064
22.315667
29.824172
41.132179
58.63842
86.354847
130.63524
200.05978
303.17728
414.43589
497.89334
566.55081
618.40242
654.58803
678.40759
693.99578
704.79768
712.52233
717.28715
718.77005
717.37897
714.73997
713.96055
720.13515
738.79134
769.58666
800.38459
813.63535
801.52905
770.10298
730.74241
690.24733
646.783
595.74007
538.14823
480.45862
428.50392
382.64868
335.32904
276.68962
207.65731
140.37259
85.858437
47.544094
23.905838
7.9351069
2.9661864
2.3358129
1.9602154
1.8458636
1.8470205
1.8942018
1.9583563
2.0387292
2.13901
2.2712511
2.4770441
2.8146693
3.3393679
4.0464985
4.9157042
5.9567881
7.221885
8.80077
10.833656
13.515342
17.140891
22.267346
29.750232
41.019475
58.47506
86.158381
130.55056
201.12089
307.41768
423.16885
511.06856
584.3792
640.64102
680.4929
706.81214
723.6904
735.02926
743.19743
748.59708
750.54022
748.68521
743.90992
738.26964
735.0649
739.53266
757.15848
786.86095
815.43171
825.28005
809.66728
775.49518
734.25606
692.49414
648.1594
596.54742
538.62257
480.74979
428.68126
382.81111
335.38541
276.47949
207.18041
139.78672
85.344696
47.198073
23.726738
7.8974162
2.9648515
2.3310948
1.9567
1.8425397
1.8431739
1.8898111
1.9534686
2.0334294
2.1330931
2.2637695
2.4659785
2.7977275
3.3164092
4.0192281
4.8848939
5.9215935
7.1804399
8.7502611
10.770165
13.453332
17.112434
22.225504
29.68738
40.925291
58.340226
85.996284
130.47647
201.60533
310.86059
431.90186
524.38983
602.60168
663.62285
707.64083
737.03415
755.60234
767.45617
775.6918
781.40809
783.95822
782.32738
776.53814
768.06139
759.3024
753.63392
756.34567
772.83589
801.3629
827.85422
834.75802
816.22539
779.81498
737.06235
694.28557
649.25555
597.18996
539.00013
480.98176
428.94538
383.09813
335.46618
276.15237
206.46582
138.94264
84.64071
46.753075
23.51345
7.856152
2.9633779
2.3260139
1.9531984
1.8392477
1.8394323
1.8853962
1.9485299
2.0279024
2.1268821
2.2558296
2.4542131
2.7795638
3.291642
3.9898426
4.8519882
5.8845723
7.1377373
8.6995502
10.70816
13.375554
17.031677
22.188518
29.632962
40.845023
58.226725
85.859767
130.40734
201.97898
312.74303
438.62466
537.84564
621.21011
687.38746
736.08092
769.20514
790.13021
802.83171
810.88853
816.31657
819.09507
817.96965
812.03664
801.90151
789.60217
777.75803
769.70082
770.70303
786.04796
813.41577
838.03901
842.44115
821.50002
783.27358
739.30396
695.71466
650.12921
597.70185
539.30098
481.32736
429.4148
383.53245
335.57455
275.64838
205.42515
137.78031
83.734575
46.224272
23.281713
7.8151935
2.9615545
2.3205072
1.9496194
1.8359875
1.8357999
1.8810045
1.9435989
2.0222159
2.1204392
2.2474821
2.4417875
2.7601233
3.2648009
3.9578153
4.8162032
5.8446448
7.092304
8.6466053
10.644966
13.298375
16.935636
22.08062
29.584701
40.775172
58.128956
85.741719
130.33953
202.25663
314.22562
442.87923
548.33643
640.19597
711.95393
765.93495
803.4601
827.54689
841.79565
849.86425
854.48928
856.65327
855.60932
849.95181
839.17896
824.52354
808.46578
793.69234
783.40549
782.81213
797.0676
823.35378
846.34452
848.65036
825.73654
786.04162
741.0948
696.85526
650.82602
598.10996
539.74992
481.94187
430.12859
384.17328
335.70319
274.88527
203.97076
136.27479
82.656845
45.651199
23.053546
7.778308
2.9591643
2.3145122
1.9458736
1.8327534
1.8322703
1.8766769
1.9387328
2.0164538
2.1138536
2.2388256
2.428822
2.7394891
3.2357946
3.9227891
4.7769062
5.8008675
7.042813
8.589585
10.578013
13.218348
16.838476
21.961524
29.436175
40.712505
58.042532
85.636369
130.2698
202.45316
315.36923
446.26285
555.00918
655.13802
737.33283
797.32879
840.10366
868.18486
884.87004
893.57465
897.38028
898.11479
896.05741
890.20459
879.3338
863.45181
844.32969
824.72379
807.26106
794.95602
792.92126
806.18217
831.49666
853.08954
853.65689
829.13585
788.25649
742.52576
697.76595
651.38209
598.72158
540.54881
482.87667
431.18997
385.08246
335.81881
273.76264
202.05091
134.47096
81.488021
45.08852
22.849654
7.74791
2.955981
2.3079604
1.9418748
1.8295337
1.8288251
1.8724419
1.9339775
2.0107038
2.1072299
2.229996
2.4155082
2.7178878
3.2047406
3.884632
4.7336776
5.752488
6.9881076
8.5268183
10.504941
13.132148
16.735676
21.838128
29.288893
40.500666
57.962884
85.539176
130.19539
202.58064
316.23261
448.93132
560.33006
664.70396
757.54483
830.36175
879.52519
912.73167
932.79782
942.92813
946.3262
945.35733
941.13677
933.71739
922.21539
905.73731
884.74713
861.39386
838.54736
818.68214
804.59492
801.29075
813.67063
838.13568
858.54967
857.6866
831.86141
790.0285
743.66939
698.49336
652.21929
599.81313
541.76453
484.26758
432.71468
386.29688
335.84011
272.18488
199.69877
132.49941
80.339825
44.587055
22.682746
7.7246597
2.9517574
2.3007686
1.937541
1.8263121
1.8254355
1.8683112
1.9293603
2.0050439
2.1006729
2.2211495
2.4020875
2.6956735
3.171981
3.8434873
4.6863813
5.6990264
6.9272782
8.4568532
10.423605
13.036697
16.622855
21.704388
29.131525
40.321299
57.647106
85.443254
130.11355
202.64798
316.86446
451.02494
564.53652
672.36659
770.62046
857.17685
922.08025
962.17768
987.05029
999.40714
1002.7686
1000.1564
993.18947
982.67154
968.85948
951.16686
928.99669
903.123
875.89655
850.16824
828.2035
812.57336
808.17332
819.79016
843.52745
862.95862
860.92576
834.04561
791.44609
744.58351
699.59172
653.71869
601.47754
543.5743
486.26751
434.79291
387.77628
335.62405
270.11222
197.06624
130.54836
79.316312
44.177519
22.555762
7.707885
2.9462051
2.2928273
1.9327911
1.823069
1.8220635
1.8642792
1.9248864
1.9995312
2.0942714
2.2124402
2.38882
2.6732897
3.138064
3.7997986
4.6352284
5.6403653
6.8597682
8.3785632
10.332142
12.929174
16.495908
21.554415
28.955864
40.121414
57.437396
84.947609
130.01378
202.66059
317.30324
452.66068
567.84388
678.44614
781.17097
874.82632
957.64851
1017.5778
1049.9309
1065.9636
1069.3455
1064.6331
1054.488
1039.9072
1021.8126
1000.8891
976.81331
949.13476
918.75869
888.08282
859.84596
836.07862
819.13371
813.80237
824.76964
847.89272
866.51183
863.52679
835.79525
792.58012
745.96592
701.56418
656.01178
603.96295
546.17812
488.99677
437.41169
389.34221
334.99481
267.62427
194.40151
128.79828
78.480419
43.866533
22.464508
7.6962923
2.9389602
2.2839848
1.9275419
1.8197835
1.8186643
1.8603248
1.9205386
1.9941955
2.088087
2.2039992
2.3759467
2.6512116
3.1036907
3.7542935
4.5808078
5.5768284
6.7854933
8.2912892
10.229124
12.807149
16.351075
21.382653
28.753858
39.889672
57.188389
84.726582
129.19103
202.60004
317.57483
453.93457
570.432
683.24002
789.59539
889.22715
981.69384
1065.9868
1124.3
1147.5653
1151.4932
1143.037
1127.9811
1108.2536
1084.435
1057.8102
1029.4547
999.1227
966.31631
931.90825
898.22692
867.84351
842.55021
824.49913
818.38607
828.8076
851.41831
869.37102
865.61373
837.19639
794.29781
748.45307
704.58905
659.45183
607.55607
549.73392
492.44074
440.35376
390.66836
333.83896
264.9411
191.96424
127.36203
77.845733
43.643363
22.401619
7.6885195
2.9295183
2.2740214
1.9217006
1.8164335
1.815188
1.8564139
1.9162792
1.9890378
2.0821469
2.1959186
2.3636601
2.6298803
3.0696272
3.7079185
4.5240655
5.5092175
6.7049406
8.1949961
10.113755
12.668775
16.185116
21.184
28.517873
39.614945
56.884325
84.432232
129.02532
201.16681
317.63696
454.92381
572.44982
686.99952
796.27476
900.83836
1001.6538
1100.131
1193.5542
1251.2908
1259.0157
1244.5032
1219.9873
1191.6352
1160.1666
1125.8162
1090.1699
1054.4469
1018.2309
980.79717
942.8611
906.60648
874.41106
847.84061
828.86821
822.1054
832.07314
854.26024
871.66895
867.28716
839.32449
797.39426
752.27605
709.1464
664.46083
612.4991
554.22286
496.31504
443.15695
391.39797
332.21394
262.35548
189.93315
126.26766
77.390331
43.489717
22.359533
7.683414
2.9170253
2.2626065
1.9151531
1.8129957
1.8115803
1.852502
1.9120535
1.9840319
2.0764429
2.1882428
2.3520823
2.609648
3.0366021
3.6617268
4.4662214
5.4387836