/*--------------------------------*- C++ -*----------------------------------*\
| =========                 |                                                 |
| \\      /  F ield         | OpenFOAM: The Open Source CFD Toolbox           |
|  \\    /   O peration     | Version:  2206                                  |
|   \\  /    A nd           | Website:  www.openfoam.com                      |
|    \\/     M anipulation  |                                                 |
\*---------------------------------------------------------------------------*/
FoamFile
{
    version     2.0;
    format      ascii;
    arch        "LSB;label=32;scalar=64";
    class       volScalarField;
    location    "0";
    object      rho_0;
}
// * * * * * * * * * * * * * * * * * * * * * * * * * * * * * * * * * * * * * //

dimensions      [1 -3 0 0 0 0 0];

internalField   nonuniform List<scalar> 
19794
(
1.2017064
1.2012826
1.2018296
1.2008396
1.2017256
1.2017015
1.2004556
1.2015261
1.2014783
1.2016126
1.2000744
1.2014081
1.2011799
1.2014393
1.2015735
1.1997601
1.2013003
1.2009304
1.2012194
1.2013858
1.2015371
1.1994493
1.2012552
1.2006828
1.201074
1.2011676
1.2013397
1.2015177
1.1991633
1.2011892
1.2004719
1.2009608
1.2010059
1.2011531
1.2013168
1.2014969
1.1989117
1.2011171
1.2002595
1.2008909
1.2008624
1.2010329
1.2011637
1.2012915
1.201477
1.1987438
1.2010547
1.2000634
1.2008206
1.2007413
1.2009427
1.2010755
1.2011754
1.2012764
1.2014582
1.1986007
1.2010418
1.1999184
1.2007598
1.2006202
1.2008737
1.2010047
1.2011179
1.2011961
1.2012713
1.2014459
1.1984791
1.2010309
1.1998216
1.2007353
1.2005235
1.200805
1.2009375
1.2010712
1.2011609
1.2012182
1.2012706
1.2014394
1.1983755
1.2010265
1.1997545
1.2007348
1.2004634
1.2007686
1.2008643
1.2010192
1.2011309
1.2011946
1.2012368
1.2012701
1.2014348
1.1982783
1.2010269
1.1997077
1.2007459
1.2004438
1.2007662
1.2008262
1.2009579
1.201089
1.2011774
1.2012179
1.2012502
1.2012669
1.2014282
1.1981808
1.2010244
1.1996713
1.2007589
1.2004481
1.2007997
1.2008246
1.2009403
1.201033
1.201142
1.2012098
1.201232
1.2012575
1.2012591
1.2014164
1.1980892
1.2010169
1.1996322
1.2007639
1.2004631
1.2008506
1.2008612
1.2009599
1.2010266
1.2010892
1.2011777
1.2012294
1.2012385
1.2012582
1.2012455
1.201398
1.1980104
1.2010112
1.1995871
1.2007519
1.2004721
1.2009009
1.200917
1.201019
1.201057
1.2010913
1.2011265
1.201198
1.2012384
1.2012384
1.2012513
1.2012254
1.201372
1.1979444
1.2010139
1.1995428
1.2007264
1.2004643
1.2009323
1.2009714
1.2010948
1.2011257
1.2011291
1.2011341
1.2011472
1.2012059
1.2012387
1.2012321
1.2012363
1.2011985
1.2013376
1.1978891
1.2010264
1.1995055
1.200697
1.2004406
1.2009377
1.2010056
1.2011638
1.2012077
1.2012043
1.2011768
1.2011554
1.201154
1.201204
1.2012313
1.2012193
1.2012131
1.2011643
1.2012944
1.1978407
1.2010467
1.1994762
1.2006722
1.200408
1.2009203
1.2010127
1.2012073
1.2012777
1.20129
1.2012555
1.2012014
1.2011585
1.2011503
1.2011935
1.2012164
1.2012002
1.2011813
1.2011226
1.2012406
1.197795
1.2010716
1.1994534
1.200655
1.2003737
1.200889
1.2009956
1.2012197
1.2013187
1.2013603
1.2013419
1.20128
1.201206
1.2011453
1.2011365
1.2011749
1.2011943
1.2011754
1.2011416
1.2010708
1.2011738
1.1977488
1.2010975
1.1994342
1.2006454
1.2003406
1.2008522
1.200962
1.2012053
1.2013266
1.201399
1.2014094
1.2013642
1.2012818
1.2011944
1.20112
1.2011128
1.2011489
1.2011659
1.201146
1.2010928
1.2010055
1.2010898
1.1976999
1.2011214
1.1994157
1.2006418
1.2003093
1.2008141
1.2009191
1.2011724
1.2013073
1.2014033
1.2014427
1.2014267
1.2013614
1.2012645
1.2011677
1.2010861
1.2010802
1.2011168
1.2011333
1.201113
1.2010325
1.2009213
1.200985
1.1976472
1.2011411
1.1993953
1.2006422
1.2002798
1.2007771
1.2008709
1.2011286
1.2012694
1.2013802
1.2014412
1.2014534
1.2014173
1.2013377
1.2012307
1.2011261
1.2010448
1.2010403
1.2010808
1.2010984
1.2010759
1.200956
1.2008102
1.2008558
1.1975908
1.2011557
1.1993714
1.2006445
1.2002514
1.2007426
1.20082
1.2010779
1.2012208
1.2013389
1.2014126
1.2014456
1.201437
1.2013863
1.201296
1.2011827
1.2010697
1.2009951
1.2009956
1.2010441
1.2010629
1.2010311
1.2008535
1.2006583
1.2006966
1.1975314
1.2011648
1.1993433
1.2006472
1.2002233
1.2007113
1.2007687
1.2010235
1.2011662
1.2012878
1.2013663
1.2014114
1.2014233
1.2013992
1.2013375
1.2012391
1.2011212
1.2010025
1.2009377
1.2009491
1.2010088
1.2010271
1.2009722
1.2007114
1.2004541
1.2005147
1.1974691
1.2011688
1.199311
1.2006492
1.2001952
1.2006833
1.2007182
1.2009679
1.2011084
1.2012317
1.2013106
1.20136
1.2013838
1.20138
1.2013445
1.2012741
1.2011684
1.2010455
1.2009286
1.2008754
1.2009037
1.2009757
1.2009877
1.2008864
1.2005148
1.2001895
1.2003479
1.1974033
1.2011682
1.1992751
1.2006504
1.2001668
1.2006587
1.2006695
1.200913
1.20105
1.2011739
1.2012512
1.2012996
1.2013275
1.2013359
1.2013212
1.2012771
1.201198
1.2010851
1.2009552
1.2008486
1.2008115
1.2008613
1.2009438
1.2009392
1.2007507
1.2002432
1.1998813
1.2002275
1.1973392
1.2011631
1.1992359
1.2006511
1.2001378
1.2006376
1.2006235
1.2008601
1.2009927
1.2011166
1.2011911
1.2012365
1.2012624
1.2012749
1.2012734
1.2012511
1.201199
1.2011102
1.2009904
1.2008569
1.2007645
1.2007482
1.2008219
1.2009099
1.2008742
1.200541
1.1998967
1.1996053
1.2001598
1.1972751
1.2011533
1.1991941
1.2006509
1.2001078
1.2006196
1.2005806
1.2008106
1.2009375
1.2010618
1.2011327
1.2011739
1.201195
1.201205
1.2012083
1.2012006
1.2011718
1.2011108
1.2010114
1.2008841
1.2007554
1.2006787
1.2006866
1.2007846
1.2008688
1.2007798
1.2002203
1.1995367
1.1994793
1.2001274
1.1972116
1.2011432
1.1991502
1.2006499
1.2000767
1.200604
1.200541
1.2007656
1.2008851
1.20101
1.2010777
1.201114
1.2011291
1.2011329
1.2011336
1.2011317
1.2011193
1.2010835
1.2010122
1.2009032
1.2007683
1.2006509
1.2005922
1.2006265
1.2007471
1.2008123
1.2006411
1.1998219
1.19924
1.1995024
1.2001111
1.1971495
1.2011312
1.1991046
1.200648
1.2000444
1.2005904
1.2005042
1.2007255
1.2008357
1.2009617
1.2010269
1.2010586
1.201067
1.2010628
1.201056
1.2010519
1.2010467
1.2010291
1.2009849
1.2009032
1.2007864
1.2006497
1.2005434
1.2005043
1.2005675
1.2007065
1.2007346
1.2004284
1.1993892
1.1991443
1.1995475
1.2000993
1.1970893
1.2011186
1.1990564
1.2006452
1.2000106
1.2005782
1.2004698
1.2006902
1.2007896
1.200917
1.2009805
1.2010083
1.20101
1.2009972
1.2009805
1.2009682
1.2009614
1.2009524
1.2009281
1.2008749
1.2007842
1.200659
1.2005267
1.2004311
1.2004139
1.2005091
1.2006614
1.2006387
1.2000015
1.1992155
1.1991306
1.1995906
1.2000902
1.1970311
1.2011063
1.1990091
1.2006418
1.1999754
1.2005669
1.200437
1.2006594
1.2007465
1.2008759
1.2009384
1.2009633
1.2009587
1.2009373
1.2009099
1.200886
1.2008708
1.2008612
1.2008469
1.2008149
1.2007532
1.2006558
1.2005248
1.2003956
1.2003118
1.2003201
1.2004538
1.2006227
1.2004245
1.1996498
1.199169
1.1991371
1.1996265
1.2000834
1.1969753
1.2010954
1.1989605
1.2006376
1.1999389
1.200556
1.2004052
1.2006323
1.2007066
1.2008381
1.2009003
1.2009236
1.2009134
1.2008838
1.2008456
1.2008088
1.2007809
1.2007632
1.2007493
1.2007285
1.2006893
1.2006201
1.2005148
1.20038
1.2002536
1.2001833
1.2002257
1.2004232
1.2005043
1.2002629
1.1994718
1.1991513
1.1991594
1.1996549
1.2000783
1.1969212
1.2010874
1.1989113
1.2006322
1.1999003
1.2005454
1.2003737
1.2006079
1.2006692
1.2008029
1.2008654
1.2008886
1.2008736
1.2008365
1.2007881
1.2007383
1.2006957
1.2006649
1.2006436
1.2006244
1.2005975
1.200552
1.2004759
1.2003618
1.2002218
1.2000978
1.2000461
1.20016
1.200356
1.2004428
1.2000829
1.1993545
1.1991643
1.1991844
1.1996769
1.2000745
1.196868
1.2010816
1.1988616
1.200628
1.1998599
1.2005349
1.2003422
1.2005858
1.2006338
1.2007698
1.2008331
1.2008577
1.2008389
1.2007952
1.2007371
1.200675
1.2006174
1.2005709
1.2005369
1.2005112
1.200487
1.2004555
1.2004044
1.2003194
1.2001946
1.2000477
1.1999273
1.1999355
1.2000692
1.2003801
1.2003424
1.1998938
1.1993062
1.199185
1.1992078
1.1996938
1.2000718
1.1968176
1.2010724
1.1988119
1.2006246
1.1998198
1.2005244
1.2003102
1.2005654
1.2005999
1.2007387
1.2008028
1.2008301
1.2008085
1.2007591
1.2006923
1.2006185
1.2005464
1.2004835
1.2004336
1.2003962
1.2003669
1.2003395
1.2003043
1.2002462
1.2001493
1.2000111
1.1998559
1.199782
1.1997921
1.2001092
1.2003505
1.200237
1.1997509
1.1992898
1.1992064
1.1992282
1.1997068
1.2000697
1.1967776
1.2010575
1.1987635
1.2006217
1.1997782
1.2005145
1.2002777
1.2005463
1.2005669
1.2007089
1.2007738
1.2008052
1.2007817
1.2007277
1.2006529
1.2005683
1.2004826
1.2004035
1.2003367
1.2002841
1.2002442
1.2002132
1.2001843
1.2001445
1.2000759
1.1999634
1.199809
1.199688
1.1995956
1.1998026
1.2001101
1.2003173
1.2001413
1.1996496
1.1992892
1.1992261
1.1992452
1.1997169
1.2000681
1.1967629
1.2010664
1.1987154
1.2006162
1.199736
1.2005046
1.2002438
1.2005281
1.2005344
1.2006803
1.2007456
1.2007823
1.2007577
1.2007002
1.2006182
1.2005236
1.2004252
1.2003308
1.200247
1.2001776
1.2001236
1.2000836
1.2000529
1.2000215
1.1999738
1.1998904
1.1997582
1.1996287
1.1994763
1.1995765
1.1997907
1.2001282
1.2002776
1.2000584
1.1995854
1.1992972
1.1992439
1.1992591
1.1997248
1.200067
1.1967149
1.2011336
1.1986606
1.2006074
1.1996939
1.2004959
1.2002094
1.2005108
1.2005022
1.2006526
1.2007178
1.2007607
1.2007358
1.2006758
1.2005875
1.2004836
1.2003733
1.2002646
1.2001644
1.2000779
1.200008
1.1999554
1.1999173
1.1998864
1.199849
1.1997882
1.1996845
1.1995717
1.1994047
1.1994399
1.1995473
1.1998125
1.2001501
1.2002316
1.1999882
1.1995478
1.1993083
1.1992593
1.1992702
1.199731
1.2000661
1.1966934
1.2011378
1.1986162
1.2006121
1.199651
1.2004849
1.2001753
1.2004946
1.2004702
1.200626
1.2006898
1.2007398
1.2007153
1.2006539
1.20056
1.2004476
1.200326
1.2002038
1.200088
1.1999847
1.1998982
1.199831
1.1997819
1.1997454
1.1997094
1.1996612
1.1995803
1.1994944
1.199342
1.1993571
1.199404
1.1995607
1.1998523
1.2001672
1.2001861
1.1999314
1.1995276
1.1993198
1.1992723
1.1992791
1.1997359
1.2000654
1.1966808
1.201148
1.1985787
1.2006483
1.1996026
1.2004716
1.2001405
1.2004792
1.2004385
1.2006005
1.2006612
1.2007192
1.2006958
1.2006339
1.2005351
1.2004149
1.2002826
1.2001475
1.2000169
1.1998974
1.1997943
1.1997115
1.1996492
1.1996035
1.1995623
1.1995171
1.1994482
1.1993859
1.1992608
1.1992849
1.1993181
1.1994167
1.1995998
1.1998984
1.2001776
1.200145
1.1998874
1.1995181
1.1993304
1.1992831
1.1992863
1.1997398
1.2000649
1.1966676
1.2011586
1.1985579
1.2006539
1.1995655
1.2004674
1.2001041
1.2004627
1.2004064
1.2005763
1.2006319
1.2006986
1.2006767
1.2006153
1.2005122
1.2003849
1.2002424
1.2000948
1.19995
1.1998148
1.1996954
1.1995967
1.1995203
1.1994629
1.1994144
1.199364
1.199296
1.1992468
1.1991458
1.1991961
1.1992412
1.1993312
1.1994597
1.1996524
1.1999445
1.2001817
1.2001102
1.1998545
1.1995147
1.1993397
1.199292
1.199292
1.1997428
1.2000646
1.1966549
1.2011678
1.1985434
1.2006592
1.1995414
1.2004873
1.2000644
1.2004441
1.2003744
1.2005529
1.2006022
1.2006781
1.2006576
1.2005977
1.2004909
1.2003572
1.2002048
1.2000452
1.1998864
1.1997359
1.1996004
1.1994858
1.1993949
1.1993252
1.1992652
1.1992078
1.1991326
1.1990846
1.1989946
1.1990734
1.1991462
1.1992513
1.1993774
1.1995196
1.1997108
1.1999866
1.2001812
1.2000821
1.1998306
1.1995145
1.1993476
1.1992992
1.1992966
1.1997453
1.2000643
1.1966457
1.2011761
1.1985293
1.2006643
1.1995262
1.2004891
1.2000375
1.2004321
1.200341
1.2005291
1.2005721
1.2006578
1.2006385
1.2005809
1.2004707
1.2003313
1.2001695
1.199998
1.1998255
1.1996598
1.1995084
1.1993778
1.1992722
1.1991897
1.1991184
1.199053
1.1989646
1.1989091
1.1988155
1.1989098
1.1990144
1.1991529
1.199296
1.1994422
1.1995878
1.1997694
1.2000225
1.2001781
1.20006
1.1998136
1.1995159
1.1993542
1.1993051
1.1993003
1.1997473
1.2000641
1.1966459
1.2011833
1.1985156
1.2006688
1.1995147
1.2004906
1.2000191
1.2004427
1.2003069
1.2005041
1.2005411
1.2006376
1.2006196
1.2005647
1.2004514
1.2003069
1.2001362
1.1999531
1.1997668
1.1995858
1.1994185
1.1992716
1.1991512
1.1990557
1.1989731
1.1988988
1.1987963
1.1987284
1.1986201
1.1987121
1.1988345
1.1990162
1.1991968
1.1993611
1.1995166
1.1996575
1.1998238
1.2000519
1.2001738
1.2000431
1.1998015
1.199518
1.1993596
1.1993098
1.1993032
1.1997488
1.2000639
1.1966582
1.2011862
1.1985044
1.200673
1.1995039
1.2004921
1.2000075
1.2004395
1.200289
1.2004839
1.2005085
1.2006156
1.2006006
1.2005497
1.200433
1.2002838
1.2001044
1.1999101
1.1997101
1.1995136
1.19933
1.1991664
1.1990309
1.198922
1.1988288
1.1987459
1.1986287
1.1985487
1.1984185
1.1984943
1.1986134
1.1988241
1.1990587
1.1992638
1.1994375
1.199593
1.1997233
1.1998719
1.2000751
1.2001693
1.2000303
1.199793
1.1995202
1.1993641
1.1993136
1.1993056
1.1997501
1.2000638
1.1966272
1.2011778
1.1985024
1.2006766
1.1994934
1.2004934
1.1999987
1.2004377
1.2002733
1.2004855
1.2004764
1.2005907
1.2005789
1.2005353
1.2004161
1.2002621
1.2000742
1.1998688
1.1996551
1.1994428
1.1992425
1.1990615
1.1989105
1.1987877
1.1986846
1.1985929
1.198464
1.1983737
1.1982174
1.1982701
1.198369
1.198583
1.198857
1.1991274
1.199345
1.1995176
1.1996657
1.1997822
1.1999126
1.2000933
1.2001652
1.2000206
1.199787
1.1995223
1.1993677
1.1993167
1.1993074
1.1997511
1.2000637
1.1966078
1.2011258
1.1985152
1.200678
1.1994846
1.2004945
1.1999905
1.2004366
1.2002636
1.2004777
1.2004629
1.2005699
1.2005512
1.2005172
1.2004
1.2002427
1.2000457
1.1998292
1.1996018
1.1993735
1.1991559
1.1989566
1.1987895
1.1986518
1.1985395
1.198437
1.198301
1.1982023
1.1980194
1.1980509
1.1981192
1.1983153
1.1985963
1.1989182
1.1992133
1.1994328
1.1995958
1.1997312
1.1998326
1.1999464
1.2001074
1.2001618
1.2000134
1.1997827
1.1995242
1.1993706
1.1993192
1.1993089
1.1997519
1.2000636
1.1965868
1.2011147
1.1985062
1.200673
1.1994811
1.2004954
1.1999828
1.2004356
1.2002564
1.2004728
1.2004477
1.2005733
1.2005272
1.2004896
1.2003785
1.2002243
1.2000199
1.1997917
1.1995503
1.1993056
1.1990703
1.1988515
1.1986675
1.1985141
1.1983905
1.1982773
1.1981407
1.1980273
1.1978243
1.1978419
1.1978784
1.1980443
1.1983035
1.1986387
1.1989988
1.1993083
1.1995209
1.199668
1.1997876
1.1998745
1.1999738
1.2001183
1.2001589
1.2000078
1.1997795
1.1995258
1.199373
1.1993211
1.1993101
1.1997526
1.2000636
1.1965664
1.2011144
1.1984879
1.2006447
1.1994864
1.2004951
1.1999763
1.2004345
1.2002498
1.2004694
1.2004385
1.2005597
1.2005408
1.20047
1.2003432
1.2001992
1.1999952
1.1997574
1.1995011
1.1992394
1.1989858
1.1987464
1.1985446
1.1983735
1.1982377
1.1981157
1.1979807
1.1978516
1.197636
1.197641
1.1976503
1.1977889
1.1980102
1.1983223
1.1987023
1.1990906
1.1994052
1.1996043
1.1997317
1.1998347
1.1999088
1.1999959
1.2001268
1.2001566
1.2000037
1.1997773
1.1995272
1.1993749
1.1993227
1.1993111
1.1997532
1.2000635
1.1965491
1.2011129
1.1984652
1.2006328
1.1994753
1.2004912
1.1999738
1.2004336
1.2002436
1.2004661
1.2004318
1.2005528
1.2005168
1.2005161
1.2003179
1.2001568
1.1999625
1.1997246
1.1994555
1.1991755
1.1989026
1.1986415
1.198421
1.1982281
1.1980812
1.1979499
1.1978166
1.1976737
1.197455
1.1974405
1.1974266
1.1975525
1.1977388
1.1980066
1.1983636
1.1987793
1.1991864
1.1994984
1.1996798
1.1997862
1.1998733
1.1999365
1.2000136
1.2001335
1.2001547
1.2000005
1.1997756
1.1995284
1.1993764
1.1993239
1.1993119
1.1997536
1.2000633
1.1965347
1.2011113
1.1984434
1.2006281
1.1994542
1.2004699
1.1999767
1.2004328
1.2002387
1.2004631
1.2004256
1.2005485
1.2005079
1.2004799
1.2003907
1.2001283
1.199909
1.1996826
1.1994116
1.1991154
1.1988217
1.1985373
1.1982968
1.1980796
1.1979223
1.1977785
1.1976472
1.1974946
1.1972761
1.1972308
1.1972
1.1973247
1.1974923
1.1977194
1.1980274
1.1984206
1.1988631
1.1992805
1.199584
1.1997456
1.1998318
1.1999045
1.1999587
1.2000277
1.2001388
1.2001533
1.199998
1.1997743
1.1995294
1.1993776
1.1993249
1.1993125
1.1997539
1.200063
1.1965229
1.2011094
1.1984241
1.2006231
1.1994317
1.2004564
1.1999625
1.200431
1.2002369
1.2004607
1.20042
1.2005444
1.2005036
1.2004716
1.2003336
1.2002332
1.1998721
1.1996172
1.1993578
1.1990574
1.1987449
1.198435
1.1981726
1.197929
1.1977599
1.1976008
1.1974728
1.1973136
1.1970968
1.1970217
1.19698
1.1970963
1.1972557
1.1974631
1.1977247
1.1980654
1.1984872
1.1989481
1.1993684
1.1996594
1.1998013
1.1998693
1.1999296
1.1999764
1.200039
1.2001429
1.2001522
1.1999961
1.1997734
1.1995302
1.1993786
1.1993258
1.199313
1.1997539
1.2000625
1.1965134
1.201107
1.1984072
1.200618
1.1994106
1.2004482
1.199944
1.2004127
1.2002385
1.2004592
1.2004157
1.2005406
1.2004993
1.2004705
1.2003247
1.2001552
1.2000018
1.1995709
1.199278
1.198989
1.1986705
1.1983364
1.1980495
1.1977768
1.1975937
1.1974165
1.1972921
1.1971275
1.1969186
1.1968175
1.1967643
1.1968626
1.1970155
1.1972197
1.1974584
1.1977477
1.1981151
1.1985582
1.1990299
1.1994473
1.199724
1.1998476
1.1998998
1.1999497
1.1999906
1.200048
1.2001462
1.2001513
1.1999947
1.1997726
1.1995308
1.1993794
1.1993264
1.1993134
1.1997536
1.2000618
1.1965059
1.2011037
1.1983925
1.2006125
1.1993916
1.2004401
1.1999249
1.2004001
1.2002208
1.200458
1.2004135
1.200538
1.2004957
1.2004681
1.2003256
1.2001475
1.1999022
1.1997218
1.1992191
1.1988924
1.1985856
1.1982406
1.1979299
1.1976243
1.1974244
1.1972255
1.1971047
1.1969344
1.196738
1.1966185
1.1965518
1.1966233
1.1967669
1.1969727
1.1972088
1.1974711
1.1977829
1.1981717
1.1986295
1.1991053
1.1995159
1.1997779
1.1998854
1.1999245
1.1999657
1.200002
1.2000552
1.2001488
1.2001506
1.1999935
1.1997721
1.1995313
1.19938
1.199327
1.1993137
1.1997528
1.200061
1.1964997
1.2010994
1.1983798
1.2006065
1.1993745
1.200432
1.1999068
1.2003908
1.2002049
1.2004408
1.2004134
1.200537
1.2004946
1.2004671
1.2003238
1.2001512
1.1998952
1.199604
1.1993835
1.1988168
1.1984707
1.1981343
1.1978133
1.1974742
1.1972533
1.1970281
1.1969101
1.1967326
1.1965528
1.1964228
1.1963446
1.1963917
1.1965179
1.1967153
1.1969564
1.1972152
1.1974955
1.1978257
1.198231
1.1986976
1.1991726
1.1995741
1.1998224
1.1999161
1.1999443
1.1999785
1.200011
1.200061
1.2001509
1.20015
1.1999926
1.1997716
1.1995317
1.1993805
1.1993275
1.1993137
1.1997516
1.2000603
1.1964945
1.201094
1.1983688
1.2005997
1.1993592
1.2004235
1.1998903
1.2003813
1.200189
1.2004279
1.2003953
1.2005371
1.2004974
1.20047
1.2003249
1.2001506
1.1999003
1.1995972
1.1992514
1.1989858
1.1983763
1.1979964
1.1976864
1.1973271
1.1970836
1.196825
1.1967083
1.1965196
1.196363
1.1962296
1.1961425
1.1961711
1.1962769
1.1964532
1.1966899
1.1969578
1.1972334
1.1975274
1.1978724
1.1982896
1.1987604
1.199231
1.1996225
1.1998585
1.1999409
1.1999603
1.1999887
1.2000182
1.2000656
1.2001525
1.2001496
1.1999919
1.1997713
1.199532
1.199381
1.1993283
1.1993135
1.1997503
1.2000643
1.1964896
1.2010876
1.1983592
1.200592
1.1993453
1.2004146
1.1998753
1.2003719
1.2001735
1.2004165
1.2003809
1.2005177
1.2005022
1.200478
1.2003312
1.2001538
1.1998998
1.1996032
1.1992429
1.1988439
1.1985427
1.1978758
1.1975267
1.1971702
1.1969163
1.1966195
1.1965003
1.1962936
1.1961666
1.1960352
1.1959435
1.1959596
1.1960487
1.1962015
1.1964157
1.1966824
1.1969714
1.1972593
1.1975635
1.1979198
1.1983452
1.1988163
1.1992806
1.1996623
1.1998877
1.1999607
1.1999731
1.1999968
1.2000239
1.2000692
1.2001539
1.2001493
1.1999914
1.199771
1.1995322
1.1993819
1.1993294
1.1993131
1.1997557
1.2000627
1.1964845
1.2010806
1.1983509
1.2005833
1.1993327
1.2004049
1.1998615
1.2003622
1.2001593
1.200405
1.2003663
1.200508
1.2004675
1.2004869
1.2003435
1.2001628
1.1999042
1.1996025
1.1992486
1.1988314
1.1983966
1.1980248
1.1973811
1.1969799
1.1967395
1.1964134
1.1962892
1.196054
1.1959624
1.1958355
1.1957444
1.1957542
1.1958317
1.1959684
1.196156
1.1963966
1.196687
1.1969926
1.1972896
1.1976012
1.1979657
1.198396
1.198865
1.199322
1.1996948
1.1999112
1.1999766
1.1999833
1.2000033
1.2000285
1.2000722
1.2001549
1.200149
1.1999908
1.1997706
1.1995329
1.1993844
1.1993308
1.199315
1.1997546
1.2000626
1.1964789
1.201073
1.1983434
1.2005738
1.199321
1.2003944
1.1998485
1.2003522
1.2001461
1.2003937
1.2003518
1.2004972
1.2004669
1.2004235
1.2003551
1.2001773
1.1999142
1.1996072
1.1992471
1.1988358
1.1983779
1.197877
1.1975086
1.1967985
1.196529
1.1961969
1.1960772
1.1958027
1.1957496
1.1956279
1.1955415
1.1955516
1.1956235
1.195749
1.1959207
1.1961308
1.1963897
1.196699
1.1970184
1.1973219
1.1976384
1.1980085
1.1984412
1.1989065
1.1993563
1.199721
1.1999301
1.1999894
1.1999915
1.2000085
1.2000322
1.2000745
1.2001558
1.2001487
1.1999903
1.1997707
1.1995359
1.1993886
1.1993288
1.1993154
1.1997549
1.2000629
1.1964724
1.2010653
1.1983364
1.2005635
1.19931
1.2003829
1.1998362
1.2003415
1.2001335
1.2003825
1.2003382
1.2004853
1.2004606
1.2004409
1.2002512
1.2001888
1.1999291
1.1996174
1.1992516
1.1988331
1.1983799
1.1978492
1.1973647
1.1968857
1.1963242
1.1959456
1.1958546
1.1955419
1.1955293
1.1954067
1.1953302
1.195347
1.1954208
1.195541
1.1957016
1.1958958
1.1961189
1.1963905
1.1967155
1.1970462
1.1973544
1.1976736
1.1980471
1.1984804
1.1989414
1.1993843
1.1997422
1.1999452
1.1999996
1.1999981
1.2000126
1.2000351
1.2000764
1.2001564
1.2001484
1.1999902
1.1997733
1.1995419
1.1993828
1.1993299
1.199316
1.1997559
1.2000631
1.1964652
1.2010579
1.1983298
1.2005527
1.1992995
1.2003706
1.1998242
1.20033
1.2001212
1.2003709
1.2003251
1.2004736
1.2004505
1.2004424
1.2002935
1.2000446
1.1999392
1.1996317
1.1992613
1.1988369
1.1983759
1.1978468
1.1973271
1.1967425
1.1963795
1.1956891
1.1955983
1.1952643
1.1953031
1.1951702
1.195104
1.1951351
1.1952183
1.1953412
1.1954964
1.1956791
1.1958858
1.1961156
1.196396
1.1967341
1.1970743
1.1973855
1.1977059
1.1980811
1.1985138
1.1989704
1.1994071
1.1997593
1.1999573
1.2000077
1.2000033
1.2000159
1.2000375
1.2000779
1.2001568
1.2001484
1.1999923
1.1997796
1.1995343
1.1993838
1.199331
1.1993171
1.1997574
1.2000633
1.1964573
1.2010509
1.1983232
1.2005416
1.1992894
1.2003574
1.1998125
1.2003177
1.2001091
1.2003588
1.2003122
1.2004617
1.2004406
1.2004343
1.2003012
1.2001166
1.1997576
1.1996398
1.1992746
1.1988461
1.1983788
1.197841
1.1973191
1.1966912
1.1962457
1.1956704
1.1953376
1.1949485
1.195063
1.194918
1.1948616
1.1949097
1.1950104
1.1951442
1.1953024
1.1954787
1.1956727
1.195885
1.1961174
1.1964042
1.1967533
1.1971013
1.1974143
1.1977347
1.1981104
1.1985419
1.1989942
1.1994257
1.199773
1.1999669
1.2000142
1.2000075
1.2000185
1.2000393
1.2000789
1.2001573
1.2001501
1.199998
1.1997715
1.1995347
1.199385
1.1993322
1.1993187
1.1997595
1.2000636
1.1964492
1.2010447
1.1983165
1.2005306
1.1992793
1.2003436
1.1998008
1.2003044
1.200097
1.2003459
1.2002991
1.2004494
1.2004311
1.2004265
1.2002919
1.2001284
1.1998595
1.1994269
1.1992804
1.1988584
1.1983875
1.1978429
1.1973113
1.1966735
1.1961854
1.1955261
1.1952984
1.1946105
1.1947881
1.1946417
1.1946017
1.1946681
1.1947909
1.1949434
1.1951135
1.1952928
1.1954787
1.1956756
1.1958895
1.1961223
1.1964137
1.196772
1.1971264
1.1974403
1.1977598
1.1981354
1.1985653
1.1990138
1.1994406
1.199784
1.1999747
1.2000194
1.2000109
1.2000206
1.2000407
1.2000799
1.2001591
1.2001549
1.1999907
1.199771
1.1995357
1.1993862
1.1993341
1.1993212
1.1997623
1.2000639
1.1964413
1.2010392
1.1983097
1.2005198
1.1992692
1.2003294
1.1997891
1.2002902
1.2000846
1.2003322
1.2002856
1.2004363
1.2004215
1.2004194
1.2002845
1.2001162
1.1998713
1.1995551
1.1990417
1.1988623
1.1983994
1.1978518
1.1973124
1.1966617
1.1961591
1.1954455
1.1951719
1.1944543
1.1944958
1.194319
1.1943167
1.1944069
1.1945547
1.1947331
1.1949224
1.195114
1.1953023
1.1954892
1.1956841
1.1958969
1.1961288
1.1964236
1.1967895
1.197149
1.1974631
1.1977815
1.1981563
1.1985845
1.1990296
1.1994527
1.1997928
1.1999808
1.2000235
1.2000135
1.2000221
1.2000419
1.200082
1.2001633
1.200149
1.1999899
1.1997709
1.1995364
1.1993878
1.1993369
1.1993246
1.1997659
1.2000641
1.1964341
1.2010343
1.1983028
1.2005094
1.1992591
1.2003151
1.1997771
1.2002753
1.2000718
1.2003174
1.2002716
1.2004223
1.2004112
1.2004121
1.200279
1.2001087
1.1998549
1.199564
1.1991895
1.1986027
1.1984018
1.1978643
1.1973225
1.1966616
1.1961433
1.1954008
1.1950913
1.1942885
1.1943597
1.1939587
1.1939821
1.1941202
1.1942988
1.1945075
1.1947238
1.1949343
1.1951349
1.1953232
1.1955054
1.1956952
1.1959054
1.1961359
1.1964333
1.1968055
1.197169
1.1974828
1.1977997
1.1981737
1.1986003
1.1990425
1.1994624
1.1997998
1.1999858
1.2000268
1.2000155
1.2000235
1.2000441
1.2000859
1.2001592
1.2001485
1.1999894
1.19977
1.1995373
1.1993903
1.1993408
1.199329
1.19977
1.2000641
1.1964283
1.2010296
1.1982961
1.2004995
1.1992487
1.2003008
1.1997649
1.2002597
1.2000587
1.2003017
1.2002568
1.200407
1.2004002
1.2004042
1.2002734
1.2001037
1.1998467
1.199543
1.1991939
1.1987615
1.1981253
1.1978664
1.197337
1.1966742
1.1961427
1.1953731
1.1950411
1.1941699
1.1942324
1.1937299
1.1936056
1.1937788
1.1940191
1.1942626
1.1945123
1.194749
1.1949678
1.1951677
1.1953498
1.195524
1.1957069
1.195914
1.196143
1.1964424
1.1968196
1.1971862
1.1974996
1.1978151
1.198188
1.1986132
1.1990529
1.1994702
1.1998055
1.1999897
1.2000293
1.2000172
1.2000259
1.2000481
1.200083
1.2001597
1.2001483
1.1999881
1.1997686
1.1995387
1.199394
1.1993461
1.1993343
1.1997743
1.2000638
1.1964241
1.2010249
1.1982897
1.2004901
1.1992384
1.2002869
1.1997525
1.2002439
1.2000452
1.2002851
1.2002413
1.2003906
1.2003883
1.2003957
1.2002676
1.2000985
1.1998415
1.1995338
1.1991683
1.1987608
1.1982849
1.1975752
1.1973403
1.1966941
1.1961596
1.195367
1.1950085
1.1940856
1.1941368
1.1935355
1.1933663
1.1933769
1.1936801
1.1939939
1.1942821
1.1945543
1.1947965
1.1950137
1.1952062
1.1953783
1.1955428
1.1957183
1.1959222
1.1961498
1.1964506
1.1968319
1.1972009
1.1975138
1.1978278
1.1981998
1.1986237
1.1990613
1.1994765
1.19981
1.1999927
1.2000315
1.2000199
1.2000301
1.2000455
1.2000844
1.200161
1.2001477
1.199986
1.1997668
1.1995411
1.199399
1.1993525
1.19934
1.1997782
1.2000634
1.196422
1.2010196
1.198284
1.2004809
1.1992281
1.2002733
1.1997399
1.200228
1.2000313
1.2002679
1.200225
1.2003728
1.2003752
1.2003865
1.2002616
1.2000932
1.1998359
1.1995275
1.1991575
1.1987309
1.1982805
1.1977245
1.1970367
1.1967021
1.1961888
1.1953879
1.1949996
1.1940244
1.1940659
1.1933851
1.1931759
1.1930925
1.1932628
1.1936706
1.1940318
1.1943423
1.1946202
1.1948565
1.195065
1.1952461
1.1954064
1.1955607
1.1957287
1.1959296
1.196156
1.1964579
1.1968424
1.1972133
1.1975255
1.1978382
1.1982093
1.1986321
1.1990681
1.1994815
1.1998135
1.1999952
1.2000344
1.2000245
1.2000275
1.2000473
1.2000872
1.2001628
1.2001465
1.1999832
1.1997646
1.1995446
1.1994055
1.1993598
1.1993456
1.1997814
1.2000629
1.1964224
1.2010132
1.1982794
1.2004717
1.199218
1.2002602
1.1997273
1.2002122
1.2000171
1.2002503
1.200208
1.2003538
1.2003608
1.2003764
1.2002553
1.2000878
1.1998303
1.1995205
1.1991494
1.1987178
1.1982468
1.1977182
1.1971642
1.1963852
1.1962065
1.1954327
1.1950267
1.1939926
1.1940107
1.1932691
1.193029
1.1928791
1.1929529
1.1932483
1.193735
1.1941159
1.1944291
1.194699
1.1949216
1.1951176
1.1952849
1.1954324
1.195577
1.1957379
1.1959362
1.1961616
1.1964643
1.1968513
1.1972236
1.1975352
1.1978468
1.1982171
1.198639
1.1990735
1.1994854
1.1998164
1.1999985
1.2000392
1.2000221
1.2000296
1.2000508
1.2000912
1.2001653
1.2001449
1.1999796
1.1997627
1.1995495
1.199413
1.1993671
1.1993506
1.1997838
1.2000625
1.1964256
1.2010053
1.1982761
1.2004622
1.1992083
1.2002473
1.1997148
1.2001968
1.2000029
1.2002325
1.2001905
1.2003339
1.2003451
1.2003654
1.2002487
1.2000823
1.1998249
1.1995135
1.1991402
1.1987068
1.1982303
1.1976806
1.197159
1.1964785
1.1958779
1.1954706
1.1950946
1.1940115
1.193977
1.1931762
1.1929159
1.1927062
1.1927335
1.1929136
1.1933155
1.193857
1.1942293
1.1945302
1.1947835
1.1949882
1.1951682
1.1953206
1.1954559
1.1955914
1.1957459
1.1959418
1.1961664
1.1964698
1.1968587
1.1972321
1.1975432
1.1978538
1.1982234
1.1986444
1.1990777
1.1994886
1.19982
1.2000035
1.2000373
1.2000248
1.2000334
1.2000557
1.2000969
1.2001688
1.200143
1.1999756
1.1997614
1.1995556
1.1994209
1.1993738
1.1993546
1.1997855
1.2000621
1.1964317
1.2009955
1.1982745
1.2004517
1.1991992
1.2002345
1.1997025
1.2001818
1.1999887
1.2002149
1.2001727
1.2003132
1.2003282
1.2003536
1.2002417
1.2000768
1.1998196
1.1995066
1.1991309
1.1986945
1.1982157
1.1976596
1.1971188
1.1964759
1.1959246
1.1951241
1.1951674
1.1941038
1.1939983
1.1931028
1.1928249
1.1925686
1.1925506
1.1926852
1.1929707
1.193444
1.1940191
1.194356
1.1946375
1.1948672
1.1950518
1.1952149
1.1953526
1.1954762
1.195604
1.1957528
1.1959466
1.1961705
1.1964744
1.1968649
1.1972391
1.1975497
1.1978594
1.1982285
1.1986487
1.1990813
1.1994927
1.1998255
1.2000021
1.2000407
1.2000296
1.2000388
1.2000628
1.2001052
1.2001737
1.2001408
1.1999718
1.1997613
1.1995626
1.1994284
1.1993793
1.1993575
1.1997867
1.2000618
1.1964416
1.2009836
1.198275
1.20044
1.1991909
1.2002214
1.1996907
1.200167
1.1999748
1.2001976
1.200155
1.2002922
1.2003102
1.200341
1.2002342
1.2000712
1.1998144
1.1994999
1.1991216
1.1986817
1.198199
1.1976402
1.1970923
1.1964332
1.1959289
1.1951083
1.1948068
1.1942335
1.1941318
1.1930549
1.1927515
1.1924569
1.1924034
1.1924867
1.1927445
1.1931093
1.1936115
1.1942033
1.1944892
1.1947444
1.1949464
1.1951101
1.1952566
1.1953804
1.1954934
1.1956147
1.1957586
1.1959507
1.1961741
1.1964783
1.19687
1.1972449
1.197555
1.197864
1.1982325
1.1986523
1.1990857
1.1994988
1.1998242
1.2000063
1.2000466
1.2000366
1.2000468
1.2000731
1.2001166
1.2001801
1.2001388
1.199969
1.1997627
1.1995695
1.1994348
1.1993835
1.1993596
1.1997875
1.2000617
1.1964586
1.2009698
1.1982776
1.2004265
1.1991835
1.2002077
1.1996792
1.2001525
1.1999612
1.2001809
1.2001375
1.2002713
1.2002914
1.2003275
1.2002262
1.2000655
1.1998095
1.1994933
1.1991122
1.1986685
1.1981813
1.1976181
1.1970672
1.1963999
1.1958885
1.1951157
1.1947168
1.1938545
1.1943615
1.1930483
1.1927012
1.192366
1.1922833
1.1923233
1.1925397
1.1928974
1.1933089
1.1937993
1.1944005
1.1946216
1.1948452
1.1950192
1.1951621
1.195293
1.1954042
1.1955079
1.1956236
1.1957635
1.195954
1.196177
1.1964815
1.1968742
1.1972495
1.1975593
1.1978675
1.1982358
1.1986569
1.1990925
1.1994974
1.1998292
1.2000134
1.2000553
1.2000468
1.2000583
1.2000872
1.2001315
1.2001879
1.2001376
1.1999676
1.1997652
1.1995757
1.1994398
1.1993865
1.199361
1.1997881
1.2000616
1.1964872
1.2009538
1.1982826
1.2004111
1.1991772
1.2001928
1.1996683
1.200138
1.199948
1.2001646
1.2001205
1.2002507
1.2002722
1.2003134