/*--------------------------------*- C++ -*----------------------------------*\
| =========                 |                                                 |
| \\      /  F ield         | OpenFOAM: The Open Source CFD Toolbox           |
|  \\    /   O peration     | Version:  2206                                  |
|   \\  /    A nd           | Website:  www.openfoam.com                      |
|    \\/     M anipulation  |                                                 |
\*---------------------------------------------------------------------------*/
FoamFile
{
    version     2.0;
    format      ascii;
    arch        "LSB;label=32;scalar=64";
    class       volScalarField;
    location    "0";
    object      T_0;
}
// * * * * * * * * * * * * * * * * * * * * * * * * * * * * * * * * * * * * * //

dimensions      [0 0 0 1 0 0 0];

internalField   nonuniform List<scalar> 
19794
(
292.95359
292.91486
292.98275
292.93699
292.94381
292.99482
292.93959
292.96721
292.94698
293.0216
292.95063
292.97154
292.96493
292.97536
293.02855
292.95339
292.98531
292.96389
292.99402
292.97795
293.03547
292.96677
292.99053
292.96906
292.99268
292.99218
292.98613
293.03719
292.98544
293.00601
292.96848
292.99711
292.98594
292.99905
292.98505
293.03862
293.00313
293.02595
292.97577
292.99652
292.98572
292.99055
292.99279
292.98355
293.03928
293.00637
293.04286
292.98745
293.00257
292.98165
292.98932
292.97814
292.98605
292.97873
293.03906
293.00424
293.04593
292.99349
293.01155
292.98316
292.98577
292.97453
292.96725
292.97611
292.97105
293.0365
292.99672
293.04321
292.99155
293.01434
292.98525
292.98795
292.97082
292.96349
292.95458
292.96509
292.9623
293.0316
292.98375
293.03373
292.98304
293.01021
292.98285
292.98881
292.97252
292.96155
292.95133
292.94271
292.95439
292.95366
293.02516
292.96794
293.01843
292.96869
292.99873
292.97252
292.98479
292.97145
292.96549
292.95096
292.94021
292.93209
292.94458
292.94579
293.01803
292.95167
293.00044
292.95023
292.98073
292.95428
292.97227
292.9644
292.96494
292.95695
292.9418
292.93025
292.92274
292.93589
292.93896
293.01091
292.93468
292.98208
292.93073
292.95892
292.92964
292.9511
292.94829
292.95786
292.95687
292.9504
292.93392
292.92152
292.91454
292.9284
292.93331
293.00418
292.91611
292.96318
292.91174
292.93667
292.90243
292.92347
292.92308
292.94115
292.9498
292.95154
292.94524
292.92724
292.9139
292.90738
292.92219
292.92891
292.99808
292.89624
292.94302
292.89264
292.91534
292.87588
292.89385
292.8916
292.91511
292.93276
292.94564
292.94804
292.94119
292.92156
292.90726
292.90119
292.91733
292.92583
292.99272
292.87593
292.92185
292.87256
292.8945
292.85126
292.86526
292.85848
292.88292
292.9065
292.92969
292.94388
292.94629
292.93802
292.91667
292.90151
292.89595
292.91388
292.92427
292.98816
292.85613
292.90047
292.85162
292.87339
292.82828
292.83912
292.82658
292.84915
292.87435
292.90467
292.92962
292.94418
292.94616
292.93549
292.91253
292.89662
292.89167
292.91207
292.92429
292.98453
292.83781
292.87977
292.8305
292.85207
292.80629
292.81544
292.79741
292.81653
292.84058
292.87389
292.90646
292.93218
292.94627
292.94766
292.93372
292.90909
292.89257
292.88839
292.912
292.92643
292.98207
292.8217
292.86063
292.81
292.83106
292.78523
292.79374
292.7713
292.78654
292.80774
292.84145
292.8777
292.91146
292.93703
292.94993
292.95029
292.93287
292.90634
292.88934
292.88616
292.91418
292.93132
292.98133
292.80824
292.84369
292.79084
292.81096
292.76535
292.7739
292.74811
292.75966
292.77718
292.80983
292.84721
292.88524
292.91916
292.94388
292.95522
292.95357
292.93285
292.9042
292.88689
292.88517
292.91931
292.93999
292.9828
292.79758
292.82934
292.77359
292.79227
292.74687
292.7559
292.72778
292.73596
292.74942
292.78027
292.81735
292.85717
292.89584
292.9292
292.95254
292.96231
292.95736
292.93357
292.90262
292.88526
292.8857
292.92851
292.95417
292.98714
292.78965
292.8177
292.75857
292.77542
292.72997
292.73968
292.7102
292.71547
292.72454
292.75324
292.78931
292.8295
292.87046
292.90902
292.94135
292.96289
292.97137
292.96207
292.93495
292.90151
292.88457
292.88854
292.94357
292.97679
292.99588
292.78419
292.8087
292.74588
292.76063
292.71472
292.72514
292.69509
292.69808
292.70255
292.72881
292.76353
292.8034
292.84521
292.88651
292.92446
292.95545
292.97494
292.98171
292.96787
292.93686
292.90088
292.88503
292.89506
292.96705
293.01043
293.00805
292.7812
292.80211
292.73541
292.74795
292.7011
292.71213
292.6821
292.6835
292.68336
292.70689
292.74003
292.7793
292.82124
292.86379
292.9049
292.94197
292.97145
292.98907
292.99273
292.97463
292.9392
292.90083
292.88722
292.90789
293.00177
293.05769
293.01663
292.78053
292.79767
292.72701
292.73723
292.689
292.70049
292.67082
292.67132
292.6667
292.6873
292.71863
292.75718
292.79901
292.84206
292.88477
292.9254
292.96147
292.98935
293.00572
293.00493
292.98228
292.94193
292.90163
292.89201
292.93204
293.05281
293.11473
293.01661
292.78106
292.79533
292.72049
292.72827
292.67837
292.69001
292.66086
292.66111
292.6523
292.66977
292.69909
292.7368
292.77847
292.82179
292.86532
292.90786
292.94789
292.98297
293.00918
293.02398
293.01849
292.99075
292.94505
292.90381
292.90089
292.97437
293.1188
293.16605
293.00876
292.78299
292.79482
292.71569
292.72094
292.6692
292.68062
292.65188
292.65236
292.63981
292.65401
292.6811
292.71789
292.75933
292.80293
292.84706
292.89071
292.93298
292.97245
293.00656
293.03153
293.04343
293.03345
292.99999
292.94867
292.90829
292.9164
293.03875
293.1934
293.18408
292.99953
292.78604
292.79524
292.71238
292.71511
292.66141
292.67229
292.64367
292.64463
292.62893
292.63979
292.66434
292.70011
292.74128
292.78516
292.82994
292.87451
292.91819
292.96021
292.9992
293.03231
293.05664
293.06465
293.04983
293.00992
292.95301
292.91662
292.94016
293.13462
293.2443
293.1761
292.99275
292.78993
292.79675
292.7105
292.71063
292.65496
292.66498
292.63614
292.63758
292.61937
292.62689
292.64856
292.68316
292.72399
292.76814
292.81364
292.8592
292.9041
292.94786
292.98976
293.02834
293.06053
293.08356
293.08791
293.0677
293.02045
292.95854
292.92943
292.99362
293.21545
293.26629
293.1634
292.9869
292.79444
292.79898
292.71006
292.70737
292.64979
292.65867
292.62927
292.63103
292.61091
292.61514
292.63357
292.66678
292.70718
292.75154
292.79777
292.84445
292.89068
292.93599
292.97996
293.02187
293.06008
293.09216
293.11285
293.11344
293.08701
293.03141
292.96518
292.95686
293.07159
293.26772
293.26315
293.1524
292.98199
292.79941
292.80166
292.7103
292.7052
292.64587
292.65337
292.62311
292.62488
292.60336
292.60442
292.61928
292.65083
292.69061
292.7351
292.78202
292.82986
292.87758
292.92455
292.97042
293.01477
293.05681
293.0947
293.12654
293.14507
293.1414
293.10762
293.0417
292.97833
292.98945
293.17599
293.27172
293.25839
293.14347
292.9779
292.80468
292.80459
292.7116
292.70403
292.64311
292.64906
292.61772
292.61923
292.59655
292.59463
292.60567
292.63523
292.67417
292.71864
292.76614
292.8151
292.86437
292.91318
292.96107
293.0077
293.05257
293.09489
293.1331
293.16428
293.18049
293.17188
293.128
293.05358
292.9939
293.04932
293.21322
293.27436
293.25091
293.13641
292.97453
292.81014
292.80758
292.71376
292.7038
292.64164
292.64571
292.61316
292.61413
292.59043
292.58586
292.59278
292.61998
292.65781
292.70208
292.75001
292.79996
292.85074
292.90147
292.95154
293.00056
293.04811
293.09365
293.13647
293.17514
293.20572
293.21939
293.20333
293.14919
293.06095
293.02992
293.08983
293.24288
293.27018
293.24332
293.13087
292.97175
292.81566
292.81048
292.71667
292.704
292.6413
292.64324
292.60946
292.60962
292.58499
292.57808
292.58067
292.60513
292.64155
292.68538
292.73355
292.78432
292.83648
292.88908
292.94142
292.99299
293.04332
293.09194
293.13834
293.18193
293.22115
293.25122
293.26016
293.23685
293.16321
293.07577
293.05505
293.13971
293.25504
293.26451
293.23648
293.12654
292.96948
292.82114
292.81295
292.72023
292.70478
292.64156
292.64155
292.60663
292.60573
292.58024
292.57125
292.56944
292.59079
292.62547
292.66861
292.7168
292.76817
292.82149
292.87583
292.9304
292.98457
293.03782
293.08964
293.13953
293.187
293.23158
293.27153
293.29913
293.30408
293.26365
293.17576
293.08598
293.08695
293.17718
293.25918
293.25895
293.23062
293.12314
292.96763
292.82671
292.81446
292.72442
292.70597
292.64279
292.64051
292.60466
292.60248
292.57621
292.56537
292.55916
292.57709
292.60966
292.65186
292.69982
292.75156
292.8058
292.86164
292.91827
292.97501
293.03124
293.0864
293.13988
293.19123
293.23996
293.28578
293.32462
293.35075
293.34189
293.28499
293.1803
293.10165
293.11531
293.20411
293.25941
293.25396
293.2258
293.12047
292.96613
292.83017
292.8151
292.72926
292.70723
292.64487
292.64023
292.60369
292.59986
292.57288
292.5604
292.54992
292.56413
292.59427
292.63525
292.68273
292.73459
292.78949
292.84655
292.90501
292.96415
293.02331
293.08184
293.13913
293.19461
293.24747
293.29768
293.34296
293.3816
293.39629
293.37203
293.29328
293.18485
293.11803
293.13963
293.22153
293.25761
293.24956
293.2219
293.11836
292.96492
292.83093
292.81538
292.7346
292.70815
292.64772
292.64031
292.6035
292.59783
292.57025
292.55627
292.54173
292.55206
292.57943
292.6189
292.66566
292.71739
292.77269
292.83069
292.89068
292.95197
293.01387
293.07571
293.13682
293.19655
293.2541
293.30881
293.35867
293.40414
293.43246
293.43155
293.38476
293.29772
293.18736
293.13482
293.16004
293.23206
293.25507
293.24577
293.21875
293.11669
292.96393
292.83166
292.8161
292.73827
292.70889
292.65127
292.64072
292.60389
292.59636
292.56831
292.55287
292.53466
292.54097
292.56524
292.60297
292.64876
292.70012
292.75556
292.8142
292.87539
292.93852
293.00292
293.0679
293.13277
293.19686
293.25938
293.31924
293.3739
293.4239
293.45941
293.4708
293.446
293.39179
293.29663
293.18967
293.15048
293.17646
293.23803
293.25245
293.24259
293.21623
293.11536
292.96314
292.83233
292.81692
292.73895
292.70963
292.65531
292.64113
292.60508
292.5954
292.56704
292.55012
292.52873
292.53092
292.55183
292.58756
292.63215
292.68292
292.73826
292.79726
292.85934
292.92397
292.99055
293.0584
293.12687
293.19524
293.26285
293.32838
293.38878
293.44369
293.48351
293.50057
293.48616
293.4534
293.39125
293.29251
293.1924
293.16412
293.18916
293.24117
293.25003
293.23995
293.21421
293.1143
292.9625
292.83292
292.81779
292.73947
292.71039
292.65834
292.64165
292.60692
292.59481
292.56653
292.54797
292.52392
292.52192
292.53928
292.5728
292.61597
292.66595
292.72094
292.78005
292.84272
292.90851
292.97691
293.04733
293.11912
293.19164
293.26389
293.33561
293.40254
293.46383
293.50837
293.52785
293.51762
293.49355
293.45203
293.38587
293.28701
293.19558
293.17542
293.19871
293.24266
293.24791
293.23779
293.2126
293.11345
292.96198
292.83347
292.81873
292.73982
292.71121
292.65892
292.64246
292.60923
292.59439
292.56648
292.54638
292.52017
292.51397
292.52764
292.55875
292.60033
292.64932
292.70377
292.76275
292.82572
292.89234
292.96221
293.03484
293.10963
293.18599
293.26313
293.34056
293.41436
293.48323
293.53467
293.55678
293.54714
293.52609
293.49152
293.44497
293.37762
293.28128
293.19895
293.18445
293.20573
293.24323
293.24612
293.23602
293.2113
293.11277
292.96156
292.83396
292.81973
292.74002
292.71205
292.65937
292.64306
292.6112
292.59426
292.56684
292.54521
292.51736
292.50704
292.51697
292.54549
292.58532
292.63315
292.68688
292.74551
292.80853
292.87567
292.94667
293.02113
293.09858
293.17847
293.26007
293.34282
293.42374
293.50072
293.56106
293.58865
293.57898
293.55714
293.5247
293.48338
293.43447
293.36806
293.27603
293.20223
293.1915
293.21081
293.24333
293.24462
293.23459
293.21027
293.11222
292.96123
292.83442
292.82078
292.74013
292.71292
292.6597
292.6437
292.6116
292.59461
292.5676
292.54431
292.51534
292.50107
292.50727
292.53307
292.571
292.61754
292.67039
292.72848
292.79132
292.8587
292.9305
293.00644
293.08616
293.16922
293.255
293.34301
293.43053
293.51556
293.58581
293.62187
293.61517
293.59104
293.55654
293.51683
293.47156
293.42233
293.35841
293.27156
293.20521
293.19691
293.21447
293.24318
293.24338
293.23343
293.20944
293.11178
292.96096
292.83486
292.82189
292.74015
292.71381
292.65995
292.64435
292.61192
292.59493
292.56861
292.54386
292.51395
292.49602
292.49857
292.5215
292.55743
292.60255
292.65438
292.71179
292.77424
292.84162
292.9139
292.99096
293.07259
293.15844
293.24807
293.34097
293.43492
293.52748
293.60779
293.65383
293.65402
293.631
293.59147
293.54874
293.50486
293.45796
293.41003
293.34946
293.26794
293.20778
293.20104
293.21711
293.24292
293.24238
293.2325
293.20877
293.11143
292.96074
292.83585
292.82303
292.74011
292.71472
292.66014
292.64501
292.61216
292.59528
292.56882
292.5439
292.51323
292.49174
292.49081
292.51082
292.54464
292.58825
292.63895
292.69553
292.75743
292.82457
292.89707
292.97493
293.05809
293.14634
293.23944
293.33689
293.43652
293.53669
293.62655
293.68259
293.69204
293.67528
293.63426
293.58384
293.53609
293.49068
293.44416
293.39855
293.34162
293.26508
293.20992
293.20418
293.21903
293.24263
293.24156
293.23175
293.20824
293.11114
292.96056
292.83948
292.82615
292.74006
292.71566
292.66027
292.64566
292.61235
292.59564
292.569
292.54401
292.51319
292.48816
292.48387
292.50098
292.53266
292.57467
292.62415
292.67978
292.74098
292.80771
292.88018
292.95853
293.04288
293.13314
293.22931
293.33092
293.43639
293.54359
293.64231
293.70714
293.72645
293.71927
293.68347
293.62889
293.57059
293.52052
293.47587
293.43123
293.38843
293.33499
293.26285
293.21165
293.20657
293.22044
293.24235
293.24089
293.23115
293.20781
293.11091
292.96042
292.84237
292.83026
292.73976
292.71662
292.66037
292.64632
292.6125
292.59599
292.56914
292.54417
292.51312
292.48646
292.47761
292.49185
292.52148
292.56185
292.61002
292.66461
292.725
292.79115
292.86337
292.94193
293.02715
293.11905
293.21791
293.32327
293.43405
293.54849
293.65563
293.72793
293.75569
293.75909
293.73344
293.6828
293.61729
293.55379
293.50373
293.4616
293.4198
293.37985
293.32952
293.2611
293.21304
293.20839
293.22149
293.24209
293.24035
293.23066
293.20746
293.11073
292.96031
292.84495
292.83219
292.74256
292.71924
292.66048
292.64699
292.61263
292.59634
292.56925
292.54433
292.51309
292.48582
292.47414
292.4833
292.51097
292.54978
292.59661
292.65008
292.70954
292.77497
292.84676
292.92529
293.01108
293.10428
293.20541
293.31407
293.42975
293.55066
293.66686
293.74651
293.78057
293.79253
293.77849
293.73833
293.67543
293.60158
293.53528
293.48708
293.44862
293.41007
293.37275
293.32507
293.25974
293.21414
293.20979
293.22227
293.24186
293.23991
293.23027
293.20719
293.11058
292.96021
292.8472
292.83387
292.74538
292.72272
292.66059
292.64765
292.61274
292.59669
292.56935
292.54449
292.51307
292.48534
292.47272
292.47816
292.50097
292.53832
292.58391
292.63623
292.69467
292.75927
292.83046
292.90875
292.99483
293.08901
293.19199
293.30353
293.42377
293.55085
293.67603
293.76399
293.80344
293.82063
293.81586
293.78863
293.73627
293.66342
293.58364
293.51662
293.47156
293.43729
293.40201
293.36696
293.32147
293.25866
293.21501
293.21087
293.22286
293.24166
293.23956
293.22996
293.20697
293.11046
292.96014
292.84916
292.83548
292.74804
292.72483
292.66337
292.64944
292.61286
292.59703
292.56943
292.54465
292.51305
292.48495
292.47156
292.47603
292.49475
292.52732
292.5718
292.62305
292.68044
292.7441
292.81456
292.89241
292.97852
293.07339
293.17786
293.29185
293.41618
293.54897
293.68308
293.78019
293.82537
293.84648
293.84683
293.82994
293.79137
293.72902
293.64854
293.56506
293.49896
293.45775
293.4277
293.39544
293.36229
293.31857
293.25782
293.21569
293.21171
293.22331
293.24149
293.23928
293.22971
293.20679
293.11036
292.96008
292.85088
292.83706
292.75043
292.72687
292.66601
292.65222
292.61299
292.59738
292.5695
292.5448
292.51304
292.48462
292.47058
292.47428
292.49207
292.52029
292.56011
292.61043
292.66686
292.72953
292.79913
292.87637
292.96229
293.05755
293.16318
293.27924
293.40719
293.54491
293.68796
293.79421
293.84586
293.87171
293.87523
293.86387
293.83657
293.78858
293.71826
293.6323
293.54706
293.48306
293.44589
293.41974
293.39013
293.35854
293.31625
293.25715
293.21623
293.21236
293.22365
293.24135
293.23905
293.22951
293.20665
293.11028
292.96003
292.8524
292.83864
292.75255
292.72891
292.66851
292.65415
292.61488
292.59821
292.56958
292.54496
292.51303
292.48435
292.46974
292.47281
292.48988
292.51719
292.5525
292.59819
292.65379
292.71557
292.78424
292.86072
292.94624
293.04162
293.14811
293.26587
293.39703
293.53908
293.69013
293.80551
293.86443
293.89636
293.9033
293.8947
293.87349
293.83754
293.7818
293.70538
293.61593
293.53052
293.46926
293.43596
293.41321
293.38587
293.35553
293.31439
293.25662
293.21666
293.21287
293.22392
293.24124
293.23887
293.22935
293.20654
293.11022
292.96
292.85377
292.84021
292.75447
292.73094
292.67081
292.65604
292.61661
292.59991
292.56959
292.54512
292.51303
292.48411
292.46901
292.47155
292.48804
292.51466
292.54906
292.59011
292.64107
292.70209
292.76992
292.84556
292.93047
293.02572
293.13278
293.2519
293.38589
293.53173
293.6904
293.81387
293.8802
293.91969
293.93156
293.92512
293.90651
293.87747
293.83439
293.77237
293.69158
293.60035
293.5159
293.45761
293.42777
293.40791
293.38246
293.35312
293.31291
293.25619
293.21699
293.21326
293.22412
293.24115
293.23872
293.22922
293.20644
293.11017
292.95997
292.85503
292.8418
292.75623
292.73299
292.67295
292.65797
292.61831
292.60113
292.57068
292.54542
292.51303
292.4839
292.46836
292.47046
292.48647
292.51255
292.54626
292.58636
292.63258
292.6889
292.75603
292.8309
292.91509
293.00996
293.11731
293.23746
293.37394
293.52306
293.68903
293.81948
293.89268
293.93991
293.95879
293.95619
293.93873
293.91262
293.87739
293.8284
293.76145
293.67782
293.58617
293.50336
293.44796
293.4211
293.40362
293.37973
293.3512
293.31172
293.25586
293.21726
293.21358
293.22429
293.24107
293.2386
293.22912
293.20637
293.11013
292.95994
292.8562
292.84341
292.75788
292.73507
292.67497
292.65993
292.61993
292.60238
292.5716
292.54639
292.51292
292.48372
292.46777
292.46949
292.48511
292.51076
292.54393
292.58332
292.62854
292.68003
292.74236
292.81661
292.90013
292.99447
293.1018
293.22267
293.36127
293.51327
293.68585
293.82225
293.90201
293.95635
293.98271
293.98677
293.97221
293.94639
293.91452
293.87441
293.82064
293.74998
293.66479
293.57368
293.49284
293.44007
293.41571
293.40017
293.37756
293.34966
293.31077
293.25559
293.21746
293.21383
293.22441
293.24101
293.23851
293.22904
293.20631
293.1101
292.95991
292.85731
292.84503
292.75945
292.73718
292.67692
292.66194
292.6215
292.60369
292.57257
292.54714
292.51334
292.4831
292.46724
292.46863
292.48392
292.50922
292.54198
292.58081
292.62528
292.6757
292.73309
292.80246
292.88545
292.9793
293.08641
293.20768
293.34799
293.50251
293.68119
293.82274
293.90847
293.96938
294.00231
294.0136
294.00596
293.98217
293.94973
293.91345
293.86952
293.81199
293.7387
293.65294
293.56297
293.48415
293.43367
293.41138
293.3974
293.37582
293.34844
293.31001
293.25537
293.21763
293.21402
293.22451
293.24096
293.23843
293.22897
293.20627
293.11005
292.95984
292.85838
292.84667
292.76098
292.73933
292.67885
292.66401
292.62304
292.60507
292.57356
292.54795
292.51374
292.48263
292.46558
292.46784
292.48286
292.50788
292.54031
292.57872
292.62261
292.67221
292.72845
292.79285
292.87077
292.96428
293.07118
293.19265
293.33421
293.4909
293.67512
293.82151
293.91254
293.97945
294.01829
294.03528
294.03512
294.01889
293.98779
293.94999
293.91031
293.86349
293.80314
293.72812
293.64249
293.55396
293.47704
293.42851
293.40789
293.39518
293.37443
293.34746
293.3094
293.2552
293.21776
293.21418
293.22459
293.24092
293.23837
293.22892
293.20619
293.10995
292.95973
292.85943
292.84833
292.76248
292.74153
292.68079
292.66615
292.62461
292.60653
292.57457
292.54883
292.51426
292.48226
292.46357
292.46544
292.4819
292.50669
292.53887
292.57695
292.62039
292.66937
292.72474
292.78788
292.86079
292.9491
293.0559
293.17766
293.32009
293.4786
293.66773
293.81842
293.91458
293.98703
294.03122
294.05318
294.05801
294.04982
294.02735
293.99034
293.94815
293.90588
293.85697
293.79459
293.71855
293.6335
293.54647
293.47126
293.42437
293.4051
293.3934
293.37332
293.34668
293.30891
293.25506
293.21787
293.2143
293.22466
293.24089
293.23832
293.22884
293.20606
293.10981
292.95957
292.86047
292.85001
292.76398
292.74378
292.68277
292.66838
292.62624
292.60808
292.57564
292.5498
292.51486
292.48207
292.46176
292.46236
292.47899
292.50562
292.5376
292.57543
292.61853
292.66703
292.72172
292.78392
292.85547
292.93885
293.04019
293.16245
293.30569
293.46584
293.65912
293.81388
293.91501
293.99261
294.04151
294.06795
294.07699
294.07321
294.05967
294.03267
293.99079
293.94496
293.90075
293.85042
293.78667
293.71014
293.62588
293.54031
293.4666
293.42104
293.40287
293.39198
293.37244
293.34605
293.30852
293.25495
293.21795
293.2144
293.22471
293.24086
293.23825
293.22869
293.20586
293.10959
292.95933
292.8615
292.8517
292.76547
292.74607
292.68481
292.6707
292.62796
292.60973
292.57679
292.55086
292.51556
292.48206
292.46021
292.45952
292.47521
292.50246
292.53646
292.5741
292.61694
292.66508
292.71925
292.78072
292.85125
292.93316
293.02962
293.14657
293.29057
293.45274
293.64952
293.80798
293.9144
293.99666
294.04976
294.07994
294.09271
294.09257
294.08307
294.06614
294.0358
293.98987
293.94102
293.89539
293.84418
293.77957
293.7029
293.61953
293.53528
293.46284
293.41838
293.40109
293.39084
293.37173
293.34555
293.30821
293.25486
293.21802
293.21448
293.22475
293.24082
293.23811
293.22846
293.20555
293.10926
292.95898
292.86253
292.85341
292.76696
292.7484
292.68692
292.67311
292.62979
292.61151
292.57804
292.55203
292.51638
292.4822
292.45885
292.45694
292.47167
292.49832
292.53318
292.57292
292.61556
292.66343
292.7172
292.77811
292.84784
292.92866
293.02352
293.13618
293.27414
293.4388
293.63891
293.80102
293.91246
293.99949
294.05651
294.08982
294.10541
294.10851
294.10239
294.08929
294.07025
294.03742
293.98809
293.93676
293.89015
293.83846
293.77336
293.69677
293.61428
293.5312
293.45981
293.41625
293.39967
293.38993
293.37117
293.34515
293.30796
293.25479
293.21807
293.21454
293.22481
293.24076
293.23791
293.22812
293.20508
293.10879
292.9585
292.86357
292.85514
292.76842
292.75075
292.68909
292.6756
292.63176
292.61342
292.57943
292.55334
292.51732
292.48249
292.45766
292.45455
292.46839
292.49442
292.52888
292.5696
292.61435
292.66201
292.71549
292.77597
292.84509
292.92505
293.01873
293.12978
293.26348
293.42328
293.62631
293.79318
293.90971
294.00066
294.062
294.09825
294.11595
294.1211
294.11797
294.1083
294.09303
294.07274
294.03801
293.98587
293.93252
293.88525
293.83335
293.76804
293.69164
293.60997
293.52789
293.45739
293.41455
293.39853
293.3892
293.37072
293.34483
293.30777
293.25473
293.21812
293.21464
293.22492
293.24065
293.23759
293.22761
293.20442
293.10813
292.95786
292.86461
292.8569
292.76985
292.75313
292.6913
292.67818
292.63387
292.61547
292.58097
292.55479
292.51842
292.48295
292.45658
292.45226
292.46524
292.49073
292.5248
292.56526
292.61102
292.66077
292.71403
292.77419
292.84285
292.92215
293.0149
293.12476
293.25658
293.41405
293.61062
293.78335
293.9063
294.00085
294.066
294.1055
294.12511
294.13145
294.12982
294.12312
294.11162
294.09515
294.07411
294.03792
293.98347
293.9285
293.88082
293.82891
293.76353
293.6874
293.60645
293.52522
293.45544
293.41319
293.39762
293.38862
293.37036
293.34458
293.30761
293.25469
293.21818
293.21481
293.22509
293.24048
293.23712
293.22687
293.20349
293.10726
292.95708
292.86565
292.8587
292.77122
292.75552
292.69353
292.68081
292.6361
292.61765
292.58268
292.55641
292.5197
292.48359
292.45564
292.45002
292.46212
292.48713
292.5209
292.56112
292.60672
292.65746
292.71277
292.77268
292.84099
292.91979
293.01183
293.12074
293.25123
293.40709
293.60137
293.77009
293.90047
294.00014
294.06873
294.11138
294.13319
294.14053
294.13934
294.1338
294.12544
294.11329
294.09621
294.07474
294.03743
293.98109
293.92483
293.87692
293.82511
293.75977
293.68391
293.6036
293.52307
293.45388
293.4121
293.3969
293.38816
293.37007
293.34437
293.30748
293.25461
293.21829
293.21508
293.22535
293.24023
293.23644
293.22586
293.2023
293.10622
292.95622
292.8667
292.86056
292.77253
292.75794
292.69575
292.6835
292.63844
292.61995
292.58455
292.55819
292.52118
292.48443
292.45482
292.44779
292.45896
292.48349
292.51702
292.55709
292.60257
292.65323
292.70946
292.77139
292.83943
292.91785
293.00936
293.11751
293.24698
293.40163
293.59384
293.76399
293.8896
293.99646
294.07048
294.11562
294.14005
294.14859
294.14768
294.14206
294.13472
294.126
294.11394
294.09662
294.07489
294.0367
293.97885
293.92158
293.87354
293.8219
293.75665
293.68106
293.60129
293.52134
293.45263
293.41123
293.39632
293.38779
293.36984
293.34421
293.30728
293.25447
293.21846
293.21548
293.22571
293.23985
293.23549
293.22453
293.20085
293.10508
292.95536
292.86776
292.86249
292.77376
292.76038
292.69793
292.68621
292.64084
292.62235
292.58658
292.56013
292.52287
292.4855
292.45417
292.44555
292.45569
292.47972
292.51303
292.55304
292.59848
292.64909
292.70533
292.76809
292.83811
292.91624
293.00734
293.11492
293.2436
293.39722
293.58809
293.75737
293.88616
293.9866
294.07013
294.11979
294.14491
294.15551
294.15504
294.14918
294.14148
294.1338
294.1255
294.11399
294.09663
294.07474
294.03588
293.97681
293.91876
293.87068
293.81922
293.75409
293.67875
293.59942
293.51995
293.45163
293.41054
293.39586
293.38749
293.36966
293.34396
293.30691
293.25426
293.21872
293.21606
293.2262
293.2393
293.23423
293.22293
293.19926
293.10394
292.95457
292.86884
292.86451
292.77493
292.76287
292.70004
292.68895
292.64326
292.62484
292.58874
292.56222
292.52477
292.48681
292.45372
292.44329
292.45228
292.47574
292.50884
292.54881
292.5943
292.64496
292.70123
292.76407
292.83479
292.91489
293.00568
293.11282
293.24091
293.39367
293.58352
293.75246
293.87954
293.98457
294.06317
294.1218
294.15002
294.16005
294.16118
294.15537
294.14712
294.13894
294.13185
294.12444
294.1137
294.09642
294.07443
294.03504
293.97501
293.91636
293.86827
293.817
293.752
293.67687
293.59791
293.51884
293.45083
293.40998
293.39549
293.38726
293.36938
293.3435
293.30635
293.25394
293.2191
293.21687
293.22681
293.23851
293.23267
293.22116
293.19767
293.1029
292.95391
292.86996
292.86664
292.77605
292.76542
292.70209
292.69171
292.64567
292.62738
292.59099
292.56443
292.52687
292.48837
292.45355
292.44105
292.4487
292.47149
292.50434
292.5443
292.58988
292.64068
292.69707
292.76002
292.83092
292.9115
293.0043
293.1111
293.23874
293.39081
293.5799
293.74846
293.87477
293.97729
294.06288
294.11638
294.15407
294.16453
294.16459
294.16012
294.15189
294.14286
294.13535
294.12944
294.12313
294.11325
294.0961
294.07404
294.03425
293.97346
293.91433
293.86627
293.81518
293.75029
293.67535
293.5967
293.51794
293.45019
293.40954
293.39519
293.38689
293.36886
293.34279
293.30549
293.25345
293.21963
293.21791
293.22746
293.23746
293.23092
293.21938
293.19624
293.10204
292.9534
292.87113
292.86889
292.77713
292.76804
292.70407
292.6945
292.64804
292.62995
292.59329
292.56673
292.52913
292.49018
292.45363
292.43885
292.44497
292.46694
292.49947
292.5394
292.58509
292.63608
292.69268
292.75582
292.82692
292.90779
293.0008
293.10967
293.23698
293.38849
293.57699
293.74523
293.87079
293.97238
294.05525
294.11749
294.14856
294.17007
294.16714
294.16187
294.15459
294.14583
294.13752
294.13137
294.12692
294.12173
294.11273
294.09575
294.07363
294.03353
293.97213
293.91264
293.86462
293.81369
293.74891
293.67412
293.59573
293.51723
293.44968
293.40919
293.39474
293.38624
293.36808
293.34171
293.30421
293.25276
293.22033
293.21914
293.22803
293.2362
293.22913
293.21777
293.19505
293.10138
292.95302
292.87238
292.87129
292.7782
292.77078
292.70601
292.69733
292.65034
292.63254
292.59559
292.56909
292.53151
292.49222
292.45404
292.43674
292.44112
292.46208
292.49417
292.53402
292.57983
292.63103
292.68789
292.75131
292.82268
292.90385
292.9973
293.10596
293.23554
293.38661
293.57465
293.74264
293.86754
293.96816
294.05052
294.10953
294.1506
294.16201
294.17346
294.16197
294.15426
294.14658
294.13866
294.1318
294.12741
294.12452
294.12037
294.11221
294.09539
294.07323
294.03289
293.97102
293.91124
293.86327
293.81248
293.74779
293.67313
293.59494
293.51665
293.44927
293.40864
293.39392
293.38522
293.36688
293.34011
293.30237
293.25181
293.22117
293.22043
293.22841
293.23483
293.22747
293.21643
293.19413
293.1009
292.95276
292.87372
292.87385
292.77931
292.77366
292.70792
292.70023
292.65258
292.63513
292.59785
292.57147
292.53394
292.49443
292.45479
292.43478
292.43723
292.45694
292.48844
292.52811
292.574
292.62541
292.68257
292.74631
292.81804
292.89956
292.99346
293.1027
293.23152
293.3851
293.57276
293.74058
293.8649
293.96461
294.04632
294.10501
294.14164
294.16393
294.16037
294.16816
294.15114
294.14375
294.13743
294.13125
294.12623
294.12371
294.12236
294.11912
294.1117
294.09506
294.07286
294.03233
293.97009
293.91009
293.86217
293.8115
293.74689
293.67234
293.59432
293.51619
293.44863
293.40764
293.39266
293.38368
293.3651
293.33781
293.29984
293.25057
293.22206
293.22159
293.22852
293.2335
293.22608
293.2154
293.19347
293.10057
292.95259
292.87522
292.8766
292.7805
292.77671
292.70987
292.70323
292.65476
292.63774
292.60006
292.57384
292.53638
292.49677
292.45585
292.43305
292.43337
292.4516
292.4823
292.52164
292.56752
292.61912
292.67658
292.74067
292.8128
292.89475
292.98914
293.09896
293.22864
293.38034
293.57131
293.73897
293.86279
293.96165
294.04272
294.10077
294.13669
294.15233
294.16188
294.14755
294.15587
294.13708
294.13206
294.12803
294.12409
294.12108
294.12039
294.12048
294.11804
294.11124
294.09476
294.07253
294.03186
293.96932
293.90916
293.86128
293.8107
293.74616
293.6717
293.59381
293.51547
293.44746
293.40611
293.39074
293.38139
293.36254
293.33463
293.29656
293.24907
293.22285
293.22247
293.2284
293.23233
293.225
293.21466
293.19301
293.10034
292.95247
292.87704
292.87958
292.78181
292.77998
292.71189
292.70638
292.65692
292.64038
292.60221
292.57619
292.53877
292.49917
292.45715
292.43161