/*--------------------------------*- C++ -*----------------------------------*\
| =========                 |                                                 |
| \\      /  F ield         | OpenFOAM: The Open Source CFD Toolbox           |
|  \\    /   O peration     | Version:  2206                                  |
|   \\  /    A nd           | Website:  www.openfoam.com                      |
|    \\/     M anipulation  |                                                 |
\*---------------------------------------------------------------------------*/
FoamFile
{
    version     2.0;
    format      ascii;
    arch        "LSB;label=32;scalar=64";
    class       volVectorField;
    location    "0";
    object      UMean;
}
// * * * * * * * * * * * * * * * * * * * * * * * * * * * * * * * * * * * * * //

dimensions      [0 1 -1 0 0 0 0];

internalField   nonuniform List<vector> 
19794
(
(62.591047 6.500371 0)
(62.471692 6.3382071 2.9184866e-21)
(62.403237 6.6307468 -1.3634679e-21)
(62.420441 6.2566089 -3.122663e-21)
(62.253592 6.5789977 1.4587843e-21)
(62.274663 6.5967273 0)
(62.347844 6.152899 0)
(62.183558 6.564192 3.1213509e-21)
(62.081131 6.4895394 -2.9170082e-21)
(62.221073 6.6507849 -1.3630338e-21)
(62.295897 6.0510988 0)
(62.097674 6.5357196 -3.3395159e-21)
(61.990354 6.428909 6.2418643e-21)
(62.020047 6.5816359 4.3749189e-21)
(62.183489 6.668543 0)
(62.255787 5.9403478 -7.6469048e-21)
(62.045777 6.5085772 -7.1454329e-21)
(61.87936 6.3436732 -3.3390958e-21)
(61.926133 6.5436805 -3.1204999e-21)
(61.969526 6.5897972 0)
(62.162538 6.7024765 -1.3625625e-21)
(62.234652 5.8246505 8.181867e-21)
(62.017444 6.4764676 1.5289247e-20)
(61.811544 6.2525526 -7.144321e-21)
(61.814002 6.4848822 0)
(61.866561 6.5350117 3.1198653e-21)
(61.944468 6.6375784 -1.4577267e-21)
(62.144987 6.7300207 0)
(62.23208 5.7056877 -1.7504047e-20)
(62.019429 6.4423734 -8.178677e-21)
(61.772725 6.1487828 5.8232448e-25)
(61.751908 6.4205446 0)
(61.741909 6.4513308 -3.3379862e-21)
(61.837207 6.5864451 6.2387463e-21)
(61.918357 6.6709886 0)
(62.131572 6.7623645 1.3620792e-21)
(62.248172 5.5872045 1.8728737e-20)
(62.048195 6.4063357 0)
(61.77071 6.0377827 7.3953504e-25)
(61.723678 6.3462274 0)
(61.669757 6.354387 -7.1420663e-21)
(61.706872 6.5058095 -3.3373937e-21)
(61.80211 6.6155507 3.1187711e-21)
(61.895383 6.7131032 -4.3718735e-21)
(62.119582 6.794419 -1.361831e-21)
(62.281285 5.4717699 2.0033222e-20)
(62.100693 6.3699696 0)
(61.80068 5.9225102 8.7489961e-21)
(61.73635 6.2674215 0)
(61.632741 6.241695 1.5282264e-20)
(61.631645 6.4100513 -7.1408415e-21)
(61.659857 6.5248441 -3.3367758e-21)
(61.769331 6.6569027 6.2364907e-21)
(61.871388 6.7555127 1.457059e-21)
(62.109745 6.828417 0)
(62.328696 5.3617276 -4.2866029e-20)
(62.172405 6.334138 -2.0027552e-20)
(61.859265 5.8071019 0)
(61.782704 6.1865359 -1.7493979e-20)
(61.639014 6.1206358 -1.6349676e-20)
(61.593927 6.2990124 1.5279588e-20)
(61.573919 6.4123989 -7.1395146e-21)
(61.615515 6.5613799 -3.3361616e-21)
(61.733728 6.6983121 3.1176362e-21)
(61.848362 6.8016994 0)
(62.102049 6.8638721 0)
(62.387424 5.258668 2.2930369e-20)
(62.25933 6.2999943 1.1226927e-24)
(61.941432 5.6946262 0)
(61.85794 6.1068994 1.8717043e-20)
(61.681109 5.9951154 -8.7446089e-21)
(61.602674 6.1814517 -8.1736938e-21)
(61.526688 6.2800414 1.5276697e-20)
(61.519918 6.4395573 0)
(61.56658 6.5966455 -3.3355256e-21)
(61.698443 6.7442151 3.1170593e-21)
(61.827259 6.8509058 0)
(62.097234 6.9008577 0)
(62.454961 5.1636416 -2.4526641e-20)
(62.35764 6.2682757 4.5842688e-20)
(62.042586 5.5875809 -2.1422599e-20)
(61.956001 6.0302572 0)
(61.754324 5.8698535 1.8714003e-20)
(61.649728 6.0620104 0)
(61.528253 6.137964 -1.6343711e-20)
(61.465051 6.2959894 7.636724e-21)
(61.458895 6.4627001 -7.136836e-21)
(61.517589 6.6369725 -3.3348886e-21)
(61.664858 6.7935116 0)
(61.809789 6.9033794 0)
(62.096166 6.9391671 0)
(62.52893 5.0769821 2.624125e-20)
(62.464023 6.2393409 -2.4521197e-20)
(62.158325 5.4874152 2.2920293e-20)
(62.071946 5.9577892 -2.1420058e-20)
(61.85243 5.7481024 -2.0018706e-20)
(61.729652 5.9449652 0)
(61.570616 5.9922964 2.6227375e-20)
(61.461949 6.1426122 -8.1706006e-21)
(61.393268 6.3033322 1.5270863e-20)
(61.397132 6.4915307 0)
(61.470014 6.6809368 0)
(61.635006 6.8465039 3.115888e-21)
(61.797452 6.9589024 0)
(62.09981 6.9785722 0)
(62.607297 4.9986373 0)
(62.575615 6.2132524 0)
(62.284692 5.3949902 2.4516893e-20)
(62.201448 5.8903358 2.2916866e-20)
(61.970413 5.6319977 2.1807032e-24)
(61.835193 5.8328418 -2.0015346e-20)
(61.648414 5.8483352 -1.8707112e-20)
(61.502767 5.9871044 0)
(61.381505 6.1317578 -1.6337424e-20)
(61.319958 6.3173987 7.6337708e-21)
(61.335852 6.5239719 0)
(61.42614 6.7290673 -3.333601e-21)
(61.610567 6.9030292 3.1152962e-21)
(61.791567 7.0172506 -2.9113108e-21)
(62.109092 7.0188049 0)
(62.688282 4.9282688 0)
(62.690059 6.1899463 0)
(62.41824 5.3106635 -2.6229988e-20)
(62.340783 5.8283306 0)
(62.103754 5.5232335 2.2913285e-20)
(61.960703 5.7268737 2.1414626e-20)
(61.753889 5.7093599 -2.001139e-20)
(61.582143 5.8352914 -1.8701821e-20)
(61.416129 5.9571213 8.7395612e-21)
(61.2986 6.1291948 -8.1673918e-21)
(61.24572 6.3347004 -7.6322945e-21)
(61.277575 6.5608897 -7.1327233e-21)
(61.38782 6.7813847 -3.3329546e-21)
(61.592993 6.9629363 3.1147098e-21)
(61.793201 7.0781275 0)
(62.124877 7.0595897 1.3600731e-21)
(62.770385 4.8654424 -3.2117516e-20)
(62.805389 6.169271 0)
(62.556065 5.2344146 0)
(62.48676 5.7719696 0)
(62.248464 5.4227121 -2.4509701e-20)
(62.101294 5.6281176 2.2907181e-20)
(61.880887 5.5771894 2.1366138e-24)
(61.691744 5.6904125 1.9438264e-24)
(61.49211 5.7861134 0)
(61.326109 5.9376835 0)
(61.212768 6.1289832 8.1657873e-21)
(61.173357 6.3565766 3.424326e-25)
(61.224329 6.6024822 -7.1313501e-21)
(61.356652 6.8379276 0)
(61.58346 7.0260545 3.1141155e-21)
(61.803221 7.1412227 -1.4551298e-21)
(62.147977 7.1006474 0)
(62.852331 4.8097399 3.7750283e-24)
(62.92003 6.1510788 3.2108498e-20)
(62.695684 5.1660096 0)
(62.636654 5.7212804 0)
(62.401042 5.3308538 2.6222043e-20)
(62.252831 5.5370592 -2.45078e-20)
(62.024018 5.453238 2.2904848e-20)
(61.82466 5.5539973 2.1406396e-20)
(61.601117 5.6224577 -2.0003515e-20)
(61.397852 5.750507 0)
(61.230638 5.9190783 1.7470812e-20)
(61.127212 6.1332105 5.1928112e-25)
(61.10503 6.3833743 1.5259014e-20)
(61.17789 6.6489689 -7.1299796e-21)
(61.333933 6.8986964 -3.3316662e-21)
(61.582911 7.0922343 0)
(61.822363 7.2062453 0)
(62.179208 7.1417087 1.3595708e-21)
(62.933051 4.7607643 3.7163919e-24)
(63.032705 6.1352184 -1.2317306e-24)
(62.835023 5.105104 0)
(62.78807 5.6761695 0)
(62.558422 5.247783 0)
(62.411844 5.4540189 0)
(62.178797 5.3382947 0)
(61.974742 5.4269479 -2.2898165e-20)
(61.73597 5.468038 2.1465853e-24)
(61.505688 5.5720081 0)
(61.295146 5.7134598 -1.8692336e-20)
(61.133469 5.9045895 8.7343782e-21)
(61.044188 6.1423446 -1.6324647e-20)
(61.042698 6.4154852 7.6281864e-21)
(61.139719 6.7005045 0)
(61.320686 6.9636655 0)
(61.592107 7.161327 0)
(61.851324 7.2729388 -1.4545775e-21)
(62.219464 7.1825426 0)
(63.011689 4.7181395 3.6279082e-24)
(63.142394 6.1215485 -3.673939e-20)
(62.972317 5.0513157 3.434187e-20)
(62.938969 5.6364748 -3.2100922e-20)
(62.71788 5.1733677 0)
(62.575349 5.3791177 0)
(62.34155 5.2329509 0)
(62.136888 5.309725 2.4498258e-20)
(61.890052 5.3238396 2.2895654e-20)
(61.642365 5.4044047 -2.1395502e-20)
(61.398517 5.51706 1.9995465e-20)
(61.18842 5.680086 0)
(61.036863 5.894674 8.7326493e-21)
(60.965842 6.1569923 0)
(60.988016 6.4532236 0)
(61.110964 6.7571803 -7.1272556e-21)
(61.317706 7.0327824 0)
(61.611718 7.2331795 -3.1123739e-21)
(61.890868 7.3410789 0)
(62.269815 7.222945 1.3590757e-21)
(63.087565 4.6815012 4.2046829e-20)
(63.248328 6.109928 0)
(63.106107 5.0042507 -3.6736939e-20)
(63.087613 5.6020006 2.0272677e-24)
(62.877084 5.1073647 0)
(62.740722 5.3123481 0)
(62.509165 5.1374505 0)
(62.307049 5.2026525 0)
(62.057688 5.1904267 0)
(61.800997 5.2486854 4.5779534e-20)
(61.533648 5.3324483 -2.1393221e-20)
(61.284746 5.4652802 -1.9991403e-20)
(61.079835 5.6506114 0)
(60.943136 5.8901868 0)
(60.894026 6.1776452 8.1588958e-21)
(60.942295 6.4968333 7.625228e-21)
(61.092491 6.8190356 -7.1259059e-21)
(61.325642 7.1059879 3.3297655e-21)
(61.642428 7.3076448 0)
(61.941998 7.410448 -1.4540343e-21)
(62.331651 7.2627071 0)
(63.160174 4.6504646 -4.4967739e-20)
(63.349958 6.1002256 -4.2030711e-20)
(63.235219 4.9635085 0)
(63.232543 5.5725167 7.3461148e-20)
(63.034021 5.0494638 3.4331736e-20)
(62.905752 5.2536075 3.2089977e-20)
(62.678937 5.0518728 0)
(62.481945 5.1058574 -2.8032243e-20)
(62.234293 5.0681195 0)
(61.975441 5.1052918 -2.4487971e-20)
(61.693651 5.1607865 0)
(61.415628 5.2631394 2.1388767e-20)
(61.166311 5.4164018 -1.9987316e-20)
(60.971847 5.6262169 0)
(60.854323 5.8918404 -8.7291656e-21)
(60.830246 6.2047203 -8.1573079e-21)
(60.906517 6.5465018 7.6237569e-21)
(61.084948 6.886091 -7.1245688e-21)
(61.345099 7.1832327 6.6583116e-21)
(61.685096 7.3845893 -3.1112427e-21)
(62.006202 7.480836 0)
(62.40682 7.3015983 1.3585866e-21)
(63.229167 4.6246401 4.8096854e-20)
(63.44693 6.092299 4.4955271e-20)
(63.358745 4.9286704 -4.2026157e-20)
(63.372591 5.5477699 -3.9288862e-20)
(63.186991 4.9992822 -7.3449017e-20)
(63.068539 5.2027127 -2.4579097e-24)
(62.84857 4.9761228 3.2083267e-20)
(62.658862 5.0193855 2.9989313e-20)
(62.416196 4.9570852 0)
(62.160538 4.9743346 0)
(61.872212 5.0025931 0)
(61.574342 5.0750609 0)
(61.289827 5.1954546 2.1160155e-24)
(61.04577 5.3719982 0)
(60.866649 5.6078637 1.867564e-20)
(60.772127 5.9002904 -8.7261634e-21)
(60.77564 6.2385873 0)
(60.881381 6.6023888 1.5244312e-20)
(61.088863 6.9583746 -1.4246588e-20)
(61.376793 7.2644966 3.3285281e-21)
(61.741005 7.4639028 3.1106862e-21)
(62.085822 7.5520377 -1.4534987e-21)
(62.497546 7.3393131 0)
(63.294328 4.603629 0)
(63.539057 6.0860094 0)
(63.476025 4.8992912 4.4952138e-20)
(63.506871 5.5274801 0)
(63.334614 4.9564049 3.9282695e-20)
(63.227499 5.1593954 -3.671952e-20)
(63.016089 4.909966 -3.4321525e-20)
(62.835554 4.9431624 0)
(62.600465 4.8574076 0)
(62.352089 4.8557903 0)
(62.063841 4.8579889 0)
(61.754594 4.9016789 0)
(61.443902 4.9894156 2.2876241e-20)
(61.158841 5.1314084 0)
(60.925416 5.3332954 -1.9980785e-20)
(60.766119 5.5964722 3.7345092e-20)
(60.697843 5.9161249 1.7450059e-20)
(60.730984 6.2795847 -8.1545614e-21)
(60.867376 6.6646534 7.6208356e-21)
(61.10478 7.0359447 -7.1219412e-21)
(61.421793 7.3498059 -3.3279194e-21)
(61.812292 7.5455215 0)
(62.184532 7.6237773 0)
(62.605654 7.3753351 0)
(63.355554 4.5870295 0)
(63.626291 6.0812147 1.0283784e-19)
(63.586621 4.8749048 -9.6148283e-20)
(63.634754 5.5113469 -4.4943931e-20)
(63.475818 4.9203563 -4.2013736e-20)
(63.381358 5.1233242 0)
(63.179837 4.8530693 0)
(63.010116 4.8769868 -3.4311701e-20)
(62.784729 4.7690529 0)
(62.546741 4.7495912 0)
(62.263919 4.7269239 -2.8013437e-20)
(61.950768 4.743162 0)
(61.622374 4.7990262 0)
(61.304871 4.9063468 0)
(61.024976 5.0724856 2.1372797e-20)
(60.807251 5.3015307 -1.997637e-20)
(60.671703 5.592894 -1.8669278e-20)
(60.632337 5.9398819 -1.7446463e-20)
(60.696745 6.3280309 0)
(60.864904 6.7334817 2.4447306e-25)
(61.133477 7.1189147 -7.1206426e-21)
(61.481939 7.4392565 0)
(61.902679 7.6294401 0)
(62.307536 7.695492 0)
(62.730613 7.4086547 0)
(63.412832 4.5744429 1.1763803e-19)
(63.708689 6.0777688 -2.1995433e-19)
(63.690283 4.8550289 5.1780543e-24)
(63.755846 5.4990536 4.8070265e-20)
(63.609819 4.8906139 4.4938716e-20)
(63.52913 5.0940968 -4.2006748e-20)
(63.338467 4.8049942 0)
(63.180959 4.8205508 2.8210766e-24)
(62.967002 4.6918617 0)
(62.741846 4.6556087 0)
(62.468639 4.6092639 2.9845176e-24)
(62.158009 4.5994747 0)
(61.819664 4.6245197 0)
(61.477902 4.6976658 0)
(61.159457 4.8275756 -2.2865601e-20)
(60.890282 5.0202661 2.1367703e-20)
(60.692822 5.2778833 1.9969935e-20)
(60.584354 5.5979508 3.7328639e-20)
(60.576081 5.9720933 -1.744276e-20)
(60.673198 6.3842568 4.0810409e-25)
(60.874481 6.8091215 7.6179325e-21)
(61.17633 7.2074906 0)
(61.56063 7.5330497 0)
(62.018545 7.7156492 0)
(62.460388 7.7658166 0)
(62.867024 7.437361 0)
(63.466228 4.5654841 -5.2457088e-24)
(63.78639 6.0755225 1.1760572e-19)
(63.786922 4.8391776 5.0271382e-24)
(63.869944 5.4902665 0)
(63.736095 4.8666156 9.6120204e-20)
(63.670097 5.0712552 8.9859793e-20)
(63.490925 4.7652124 0)
(63.346791 4.7734314 7.8516345e-20)
(63.145605 4.6255371 0)
(62.935265 4.5736573 3.4295487e-20)
(62.67493 4.5048187 3.2057212e-20)
(62.372177 4.4704421 0)
(62.030866 4.4659099 0)
(61.672497 4.5056842 0)
(61.323167 4.5995132 0)
(61.009667 4.7550443 -4.5716816e-20)
(60.756349 4.9762877 -1.9804533e-24)
(60.58315 5.2635071 -3.9931461e-20)
(60.504565 5.6124692 3.7319753e-20)
(60.529265 6.0133179 2.6158967e-20)
(60.660612 6.4486513 8.149247e-21)
(60.897054 6.8919256 0)
(61.236009 7.3020301 -7.1180973e-21)
(61.664245 7.631559 6.6524143e-21)
(62.169699 7.8037968 3.1085154e-21)
(62.644792 7.8316478 0)
(63.004834 7.4586307 0)
(63.515866 4.5597709 -4.9755415e-24)
(63.859587 6.0743276 1.2575278e-19)
(63.876584 4.8268713 1.1759868e-19)
(63.977007 5.484648 0)
(63.854353 4.8477746 -2.0560087e-19)
(63.803775 5.0542923 -1.4415876e-19)
(63.636422 4.7331189 0)
(63.506606 4.7351206 -8.3979918e-20)
(63.319143 4.5696229 0)
(63.125225 4.5034437 -3.6686945e-20)
(62.880316 4.4133558 3.4286819e-20)
(62.58981 4.3558318 0)
(62.251703 4.3230554 0)
(61.883835 4.3304645 2.7992285e-20)
(61.510891 4.3886948 0)
(61.160044 4.5068891 2.5340892e-24)
(60.8571 4.6906677 -2.2852676e-20)
(60.624273 4.9420664 2.1357826e-20)
(60.478783 5.259544 -1.6409982e-24)
(60.432489 5.6372782 -1.3561325e-24)
(60.491976 6.0641631 -8.7180526e-21)
(60.659537 6.5217086 0)
(60.934585 6.9824087 7.6150557e-21)
(61.317818 7.4031834 -7.1168483e-21)
(61.804324 7.7353166 -3.3255604e-21)
(62.367349 7.891913 0)
(62.852366 7.887558 0)
(63.135227 7.4699623 1.3571126e-21)
(63.561919 4.5569533 -1.4379391e-19)
(63.928508 6.074036 -1.34459e-19)
(63.959418 4.8176467 -1.2574306e-19)
(64.077117 5.4818615 -1.1758136e-19)
(63.964492 4.8334999 4.9802328e-24)
(63.929888 5.0426704 2.0556667e-19)
(63.774405 4.708049 9.6082528e-20)
(63.659652 4.7050326 4.4911883e-20)
(63.486493 4.5235446 -4.1978052e-20)
(63.310261 4.4445331 0)
(63.082769 4.3345658 -3.3583675e-24)
(62.808039 4.2553405 3.4277713e-20)
(62.478487 4.195759 3.2037094e-20)
(62.107666 4.171944 -2.994542e-20)
(61.718007 4.1952146 0)
(61.336514 4.2762284 5.2307921e-20)
(60.990121 4.4220875 0)
(60.702958 4.6363347 -2.2842725e-20)
(60.494709 4.9190768 -1.8841762e-24)
(60.379899 5.2671024 -1.5921458e-24)
(60.368095 5.6732157 1.8649761e-20)
(60.464448 6.1253194 0)
(60.671289 6.6040856 -8.1459784e-21)
(60.991182 7.0813855 0)
(61.43226 7.5120675 -7.1156273e-21)
(61.999062 7.8437423 0)
(62.615229 7.975675 -3.1074567e-21)
(63.064304 7.9265519 -1.4518988e-21)
(63.257089 7.4705261 0)
(63.604594 4.5566943 0)
(63.9934 6.0745028 0)
(64.035658 4.8110698 1.3445322e-19)
(64.170456 5.4815748 2.514638e-19)
(64.066573 4.8232158 1.1756582e-19)
(64.048324 5.0358352 -2.1983827e-19)
(63.904526 4.6893069 -5.4940882e-24)
(63.805406 4.6825281 9.6061439e-20)
(63.646788 4.4866218 4.4900649e-20)
(63.489172 4.3963631 0)
(63.280639 4.268027 -3.4572552e-24)
(63.024484 4.1686105 -7.3331497e-20)
(62.708037 4.0837182 -3.4271305e-20)
(62.340247 4.0299932 0)
(61.940423 4.0190977 -2.9931797e-20)
(61.534752 4.0631717 -2.7976001e-20)
(61.150899 4.1709442 -2.6142226e-20)
(60.814699 4.3473782 2.4434349e-20)
(60.54804 4.5938722 -2.2836448e-20)
(60.367917 4.9087328 -1.8298552e-24)
(60.286417 5.2872725 -1.9949398e-20)
(60.311364 5.7211736 1.864505e-20)
(60.447466 6.1976252 2.6141425e-20)
(60.698869 6.6967212 0)
(61.075381 7.190239 7.6122727e-21)
(61.599009 7.6292267 0)
(62.267508 7.9569707 3.3244314e-21)
(62.899186 8.0447392 0)
(63.261451 7.9438335 2.9030048e-21)
(63.350291 7.465252 1.882756e-20)
(63.644127 4.5586762 0)
(64.054514 6.0755884 0)
(64.105595 4.8067365 0)
(64.257268 5.4834676 -2.6887488e-19)
(64.160785 4.8163714 -1.2570893e-19)
(64.159111 5.0332342 1.1754612e-19)
(64.026613 4.6761876 -1.0989658e-19)
(63.943535 4.6669289 -1.0274036e-19)
(63.799406 4.4581102 9.6036334e-20)
(63.660997 4.3582496 0)
(63.472577 4.2131884 -4.1958975e-20)
(63.237197 4.0951957 3.921892e-20)
(62.937617 3.9865579 0)
(62.578251 3.9043865 0)
(62.174483 3.8602958 6.403331e-20)
(61.750928 3.8678071 2.991903e-20)
(61.33548 3.9373514 2.7963319e-20)
(60.955419 4.0755182 0)
(60.634728 4.2849701 0)
(60.392719 4.565035 -4.565323e-20)
(60.243797 4.9124146 2.1334937e-20)
(60.198119 5.3211882 -1.4804907e-24)
(60.262616 5.7821745 -1.2047308e-24)
(60.443104 6.2821821 1.7423704e-20)
(60.748851 6.8010151 8.1429038e-21)
(61.204629 7.3099718 0)
(61.846976 7.7606991 -7.1132895e-21)
(62.615902 8.061833 0)
(63.183046 8.0914715 1.5543467e-25)
(63.401874 7.9423821 -6.0429559e-20)
(63.41184 7.4606316 0)
(63.680784 4.5626039 0)
(64.112107 6.0771487 0)
(64.16956 4.8042772 0)
(64.337839 5.4872321 1.4373624e-19)
(64.247414 4.8124532 1.3441786e-19)
(64.262384 5.0343278 1.2568873e-19)
(64.140643 4.6679976 0)
(64.073868 4.6575379 0)
(63.943945 4.4372279 -6.306343e-24)
(63.825007 4.3294185 9.601044e-20)
(63.657476 4.169369 0)
(63.444599 4.0345456 0)
(63.164908 3.9038075 0)
(62.818712 3.7948003 -3.663956e-20)
(62.416861 3.7187089 -3.4245699e-20)
(61.981581 3.6901816 -3.5766645e-24)
(61.540363 3.7214194 2.9903612e-20)
(61.121556 3.8208435 0)
(60.751126 3.9925923 -2.611768e-20)
(60.450684 4.2370077 2.4413189e-20)
(60.236886 4.5515439 -2.2819075e-20)
(60.121954 4.9315408 -1.7033321e-24)
(60.114901 5.3701094 -1.9938554e-20)
(60.223105 5.8574714 -1.8637737e-20)
(60.456245 6.3804255 -8.710659e-21)
(60.835381 6.9182131 0)
(61.409456 7.4500397 7.6097076e-21)
(62.20829 7.8904525 0)
(63.006423 8.1586201 3.3231226e-21)
(63.389562 8.1034359 4.3101487e-20)
(63.488243 7.937124 0)
(63.461172 7.4557804 0)
(63.714828 4.5682262 1.8766945e-19)
(64.166454 6.0790439 1.7558415e-19)
(64.227916 4.8033517 0)
(64.412476 5.4925789 1.5366284e-19)
(64.326817 4.8109886 0)
(64.35836 5.0385997 -1.3439562e-19)
(64.246714 4.6640725 -1.2565823e-19)
(64.19636 4.6536559 0)
(64.080192 4.4231847 -2.1967888e-19)
(63.980691 4.3090371 -2.0536399e-19)
(63.834456 4.1357765 0)
(63.64541 3.9859989 0)
(63.387987 3.8348907 -4.1928388e-20)
(63.05901 3.7008057 7.8379005e-20)
(62.664507 3.5941264 0)
(62.223504 3.5303353 -3.8377836e-24)
(61.76236 3.5232956 -3.1984481e-20)
(61.309984 3.5834526 -2.9885997e-20)
(60.894079 3.7167461 2.7933225e-20)
(60.538582 3.9247479 2.6104788e-20)
(60.262462 4.2056039 0)
(60.079972 4.5551521 -4.5620672e-20)
(60.001867 4.967667 2.1322606e-20)
(60.037265 5.435528 1.9932868e-20)
(60.196275 5.9486123 1.8633245e-20)
(60.497901 6.4938899 1.7417659e-20)
(60.985931 7.0594328 8.1402728e-21)
(61.738227 7.592019 0)
(62.669581 8.0394048 -7.109969e-21)
(63.318139 8.202183 0)
(63.51036 8.1026544 0)
(63.554452 7.9299635 0)
(63.50062 7.4513297 0)
(63.746468 4.5753229 -2.0053162e-19)
(64.2178 6.0811367 -3.7529752e-19)
(64.281047 4.803656 1.7558453e-19)
(64.481504 5.4992326 -1.6426438e-19)
(64.399401 4.8115544 0)
(64.447308 5.0455619 0)
(64.345027 4.6637882 1.3436359e-19)
(64.311076 4.6545965 -1.2562886e-19)
(64.208093 4.4152008 1.1746018e-19)
(64.127743 4.2962471 1.0981168e-19)
(64.002843 4.1115343 0)
(63.838607 3.9487848 9.5949229e-20)
(63.605277 3.7791276 4.4846192e-20)
(63.296877 3.621845 -4.220583e-24)
(62.914625 3.4862258 0)
(62.473682 3.388218 -3.6605192e-20)
(61.998476 3.3431488 0)
(61.517847 3.3635597 3.1963154e-20)
(61.060852 3.4574835 2.9867192e-20)
(60.653657 3.628126 -2.7917625e-20)
(60.317684 3.8745498 0)
(60.069338 4.1928833 2.4393968e-20)
(59.921038 4.5777768 -2.2804896e-20)
(59.883324 5.0225663 -2.1319691e-20)
(59.967351 5.5192966 -1.9930847e-20)
(60.190516 6.0574597 -9.7318559e-25)
(60.590978 6.6330407 -8.7080002e-21)
(61.252892 7.2046089 0)
(62.211593 7.7814285 0)
(63.08866 8.124432 0)
(63.499855 8.2137857 -1.1467397e-19)
(63.59961 8.0983135 0)
(63.605902 7.9227759 -1.9336135e-20)
(63.532065 7.4474298 0)
(63.775879 4.5836269 0)
(64.266185 6.0833065 2.0051544e-19)
(64.32935 4.8049181 -3.7531175e-19)
(64.54528 5.50694 0)
(64.465609 4.8137732 0)
(64.529534 5.0547615 0)
(64.43586 4.6665695 0)
(64.418164 4.6596987 1.3433155e-19)
(64.327725 4.4125228 -1.2559249e-19)
(64.266043 4.2901915 -1.1741941e-19)
(64.162162 4.0957143 -1.0976871e-19)
(64.023382 3.9220387 -2.0522832e-19)
(63.815503 3.7357371 -9.5912517e-20)
(63.530385 3.5572419 -4.482671e-20)
(63.164687 3.3945361 4.1888494e-20)
(62.729271 3.2636644 3.9142409e-20)
(62.245833 3.1811064 0)
(61.742437 3.1614448 0)
(61.248966 3.2150272 -3.1940472e-20)
(60.793574 3.3471023 2.9848484e-20)
(60.400195 3.5580697 0)
(60.087587 3.8445331 -2.6082251e-20)
(59.869961 4.2012357 0)
(59.759223 4.6213854 0)
(59.767133 5.098642 0)
(59.911424 5.6232853 -1.992857e-20)
(60.223899 6.1937278 0)
(60.784651 6.7786046 -1.7413353e-20)
(61.683469 7.4172755 0)
(62.701335 7.9076277 -2.1109532e-19)
(63.346585 8.1550805 1.2267011e-19)
(63.633342 8.218768 0)
(63.666637 8.0925419 6.2061013e-20)
(63.646178 7.9162276 2.396801e-20)
(63.557087 7.4440903 -6.9199829e-21)
(63.803467 4.5927848 -2.2883501e-19)
(64.3114 6.0854621 0)
(64.3732 4.8068971 2.0053135e-19)
(64.604129 5.5154725 1.8764771e-19)
(64.525919 4.8173192 1.7554817e-19)
(64.605379 5.0657785 0)
(64.519547 4.6718967 0)
(64.517836 4.6683361 0)
(64.439266 4.4144328 1.3429241e-19)
(64.395623 4.2900381 2.5111594e-19)
(64.312128 4.08737 1.1738659e-19)
(64.199127 3.9048235 1.0973632e-19)
(64.017653 3.7038471 2.0514552e-19)
(63.757934 3.5062082 0)
(63.412452 3.3184382 -4.4800869e-20)
(62.987612 3.1563586 -4.6183978e-24)
(62.501652 3.0371897 -3.9110628e-20)
(61.981104 2.9774057 -3.6543694e-20)
(61.456062 2.9897514 0)
(60.956262 3.0818611 -3.5428547e-24)
(60.508058 3.2559638 -2.9831212e-20)
(60.13274 3.5095699 2.7890863e-20)
(59.846568 3.8376414 -2.6074403e-20)
(59.662883 4.2326376 0)
(59.593896 4.689364 0)
(59.657919 5.1973974 0)
(59.88293 5.757113 0)
(60.339761 6.3402107 3.7255382e-20)
(61.140498 7.0031161 -1.7408774e-20)
(62.184893 7.5729357 2.2580658e-19)
(63.027194 7.9619427 -1.3121672e-19)
(63.544527 8.1782522 0)
(63.73109 8.2181621 2.1558632e-24)
(63.717788 8.0866753 -2.5640756e-20)
(63.677848 7.9105337 -7.4035903e-21)
(63.576989 7.4412765 0)
(63.8301 4.6026102 4.8877335e-19)
(64.353833 6.0875093 -2.2884978e-19)
(64.412923 4.8093952 0)
(64.658192 5.5246237 -2.00525e-19)
(64.580816 4.8219127 -3.7524275e-19)
(64.675223 5.0782319 1.7552159e-19)
(64.596473 4.6793063 0)
(64.610349 4.6799244 -1.535351e-19)
(64.542965 4.4202581 0)
(64.516642 4.2949949 -1.3425098e-19)
(64.452635 4.0855654 0)
(64.36542 3.8961572 0)
(64.210943 3.6825111 -2.1937016e-19)
(63.978222 3.4678615 0)
(63.655973 3.2571717 -9.5806863e-20)
(63.246253 3.0658142 -4.4766097e-20)
(62.763261 2.9112818 8.3646817e-20)
(62.231236 2.8116699 3.9078762e-20)
(61.679802 2.7820983 0)
(61.139756 2.8328126 -3.8884644e-24)
(60.639614 2.9682977 6.3791006e-20)
(60.203238 3.1875758 2.9816741e-20)
(59.849275 3.4861019 2.788187e-20)
(59.592547 3.855906 0)
(59.446134 4.2919692 0)
(59.428458 4.7822015 0)
(59.564657 5.3298049 2.1313549e-20)
(59.919461 5.9041033 -9.0509429e-25)
(60.601719 6.5713353 1.8623653e-20)
(61.607125 7.1775357 0)
(62.54432 7.6464081 1.4034895e-19)
(63.29551 8.0104656 0)
(63.691335 8.1897427 -1.4201911e-19)
(63.803795 8.2151109 -5.4857289e-20)
(63.757285 8.0812847 1.583878e-20)
(63.702833 7.9057126 -9.0990506e-21)
(63.592819 7.438936 0)
(63.856248 4.6136654 -2.6093845e-19)
(64.396041 6.0892354 2.4441909e-19)
(64.448808 4.8122553 0)
(64.707417 5.5341999 0)
(64.630728 4.8273237 2.0049943e-19)
(64.739436 5.0917777 -3.7518459e-19)
(64.667073 4.6883915 1.7547339e-19)
(64.696009 4.6939241 3.2825368e-19)
(64.639131 4.4293762 0)
(64.629352 4.30432 0)
(64.583739 4.0894005 0)
(64.522007 3.8950424 1.2545798e-19)
(64.394795 3.6707299 1.1728809e-19)
(64.190221 3.4412419 -1.0962116e-19)
(63.893598 3.2098552 1.0245722e-19)
(63.502973 2.9913749 9.5725448e-20)
(63.028115 2.8030901 -4.4722219e-20)
(62.490264 2.6643431 0)
(61.917837 2.5924968 -3.9035555e-20)
(61.342091 2.600504 -3.6483276e-20)
(60.793314 2.6954877 -3.4100574e-20)
(60.297868 2.8785259 -3.1880015e-20)
(59.876953 3.146029 2.9806357e-20)
(59.547097 3.4902658 0)
(59.322718 3.905468 0)
(59.22162 4.3780073 -2.4379087e-20)
(59.267527 4.9134951 -1.408118e-24)
(59.520099 5.4778129 -2.1315234e-20)
(60.078231 6.140776 -1.9921833e-20)
(61.001737 6.7570192 0)
(61.964588 7.2660108 0)
(62.862207 7.7187654 -1.7442591e-19)
(63.504396 8.0406258 1.0124581e-19)
(63.800505 8.1950232 1.1732677e-19)
(63.858678 8.2112056 0)
(63.788043 8.0765687 9.7329713e-21)
(63.722592 7.901697 0)
(63.60542 7.437008 -3.1252085e-21)
(63.879775 4.6270681 0)
(64.441031 6.0903018 2.6099411e-19)
(64.481207 4.8152853 0)
(64.752285 5.544001 -2.2888859e-19)
(64.675978 4.8333747 0)
(64.798231 5.1061099 2.0046777e-19)
(64.731796 4.6988008 -3.7508002e-19)
(64.775176 4.7098444 -3.5085832e-19)
(64.728117 4.4412188 0)
(64.734071 4.3173279 0)
(64.705628 4.0980292 0)
(64.668795 3.9004916 -1.3414387e-19)
(64.568811 3.6674764 -1.253958e-19)
(64.393147 3.4253338 2.3443067e-19)
(64.123962 3.1755097 0)
(63.755799 2.9322269 -1.0236342e-19)
(63.293828 2.7121311 9.5622467e-20)
(62.755668 2.5353679 0)
(62.167806 2.4212698 8.3469166e-20)
(61.561252 2.3855178 3.899717e-20)
(60.967603 2.4381254 3.6449312e-20)
(60.415516 2.5826917 3.4075994e-20)
(59.928728 2.8172019 -3.556019e-24)
(59.525836 3.134588 0)
(59.222656 3.5284833 0)
(59.036505 3.9839709 2.6073069e-20)
(58.990689 4.5079779 -1.6738603e-24)
(59.140033 5.0629922 0)
(59.571565 5.719489 2.13121e-20)
(60.390838 6.3356825 2.7638041e-19)
(61.329462 6.8564124 -3.2113599e-19)
(62.300895 7.3577537 1.8654817e-19)
(63.124902 7.7688456 -1.0825514e-19)
(63.665216 8.0598943 3.800291e-25)
(63.882196 8.196892 -3.6224337e-20)
(63.900639 8.2072292 0)
(63.812143 8.0725554 -1.1867321e-20)
(63.73825 7.898388 3.3421102e-21)
(63.615454 7.4354314 0)
(63.895517 4.6372315 0)
(64.481015 6.0908461 -5.550318e-19)
(64.510855 4.8181061 2.6105245e-19)
(64.794959 5.5538555 4.8895909e-19)
(64.716951 4.839931 -2.2885882e-19)
(64.851655 5.1209481 0)
(64.791015 4.7102377 2.0041099e-19)
(64.848216 4.7272451 4.0295384e-24)
(64.810329 4.4552731 1.7536618e-19)
(64.831167 4.3333907 0)
(64.818603 4.1106723 0)
(64.80583 3.9115513 0)
(64.732761 3.6717188 1.3407313e-19)
(64.586433 3.4190875 -9.9380745e-24)
(64.345977 3.1530873 0)
(64.003024 2.8874251 0)
(63.558194 2.6377353 -1.0224374e-19)
(63.025007 2.4244852 0)
(62.42732 2.2686082 -4.4617562e-20)
(61.795172 2.188428 -4.1691613e-20)
(61.160897 2.196946 -4.7897263e-24)
(60.555057 2.3006845 -3.6428902e-20)
(60.003868 2.4997423 -4.0112235e-24)
(59.528223 2.788263 0)
(59.145438 3.1597212 0)
(58.872897 3.5985273 0)
(58.733834 4.1117554 -2.6077962e-20)
(58.777763 4.6585206 0)
(59.082499 5.3109157 2.2796972e-20)
(59.783972 5.9219595 -2.9566491e-19)
(60.667454 6.4434532 3.4353413e-19)
(61.657912 6.9626786 0)
(62.593744 7.4251927 2.3971815e-24)
(63.337969 7.8050087 -6.7034766e-20)
(63.788128 8.0720341 3.8709083e-20)
(63.943886 8.1969499 0)
(63.933049 8.2035446 1.2686121e-20)
(63.831113 8.0691987 -1.4298031e-20)
(63.750679 7.895681 0)
(63.62345 7.4341491 2.1439147e-21)
(63.899276 4.638606 0)
(64.48363 6.0923921 1.2790384e-18)
(64.539398 4.8201949 -5.553129e-19)
(64.837678 5.5637604 -2.6108185e-19)
(64.75454 4.8468536 2.4445435e-19)
(64.900213 5.1360241 0)
(64.844973 4.7224601 0)
(64.915369 4.745735 2.0035392e-19)
(64.886188 4.4710813 -3.7484306e-19)
(64.921062 4.3519372 1.7530272e-19)
(64.923055 4.1266243 0)
(64.933279 3.9273211 0)
(64.886561 3.6824456 0)
(64.7697 3.4214404 -1.0052215e-23)
(64.558807 3.1414972 0)
(64.24321 2.8559225 0)
(63.819216 2.5790644 0)
(63.295946 2.3312322 0)
(62.69399 2.1345201 9.5375255e-20)
(62.041715 2.0096588 0)
(61.37149 1.9726781 -5.2759745e-24)
(60.715296 2.0332946 3.8931924e-20)
(60.10168 2.1942048 -3.641137e-20)
(59.553905 2.4513188 0)
(59.09103 2.7984589 3.1859587e-20)
(58.730915 3.2202633 0)
(58.496702 3.7226582 0)
(58.432591 4.2623124 0)
(58.610941 4.913031 -2.4387219e-20)
(59.188027 5.5208373 0)
(59.993548 6.0360474 0)
(60.967381 6.5616393 2.1343099e-19)
(61.957663 7.0443732 1.2379786e-19)
(62.843285 7.4771127 -1.4331198e-19)
(63.507837 7.8307268 -8.2706169e-20)
(63.881965 8.0796108 0)
(63.990929 8.1961145 0)
(63.958279 8.200296 1.527877e-20)
(63.846096 8.0664234 0)
(63.760559 7.8934782 -2.2912085e-21)
(63.629826 7.4331102 0)
(63.90601 4.6387819 -2.3608579e-18)
(64.481691 6.0936939 0)
(64.561016 4.8203677 1.2297991e-18)
(64.874226 5.5739769 0)
(64.790184 4.853935 2.6105162e-19)
(64.945888 5.1511094 0)
(64.894081 4.7352673 -2.2875388e-19)
(64.976716 4.7649644 0)
(64.956024 4.4882433 2.0027924e-19)
(65.004186 4.3724518 -3.7470091e-19)
(65.019457 4.1452549 0)
(65.051421 3.9469667 -1.6385608e-19)
(65.030262 3.698683 0)
(64.942737 3.4313364 -1.0124049e-23)
(64.761848 3.1396298 -1.3384505e-19)
(64.47519 2.8366037 0)
(64.07513 2.5351368 0)
(63.566293 2.2549512 0)
(62.965462 2.018797 -1.0195465e-19)
(62.298652 1.8494604 0)
(61.597505 1.7659334 -4.4513652e-20)
(60.894865 1.7813034 -4.1613976e-20)
(60.221338 1.9013208 -3.8910552e-20)
(59.60254 2.1241627 0)
(59.059452 2.4445867 -3.4060324e-20)
(58.610802 2.8480646 3.1868035e-20)
(58.279462 3.3387378 0)
(58.104856 3.8722853 0)
(58.156985 4.5240077 2.60845e-20)
(58.606241 5.1305075 6.7664979e-19)
(59.320115 5.6396873 0)
(60.247612 6.1645273 -7.732331e-24)
(61.255814 6.6553669 -1.3241894e-19)
(62.223706 7.1098024 3.7080412e-24)
(63.05151 7.5162877 1.590661e-24)
(63.64183 7.8489142 5.072128e-20)
(63.953809 8.0843022 0)
(64.027127 8.1949057 0)
(63.978039 8.1975152 0)
(63.857963 8.0641471 0)
(63.768422 7.8916925 2.5725481e-21)
(63.634912 7.432271 1.3046726e-21)
(63.913405 4.6383176 2.3667209e-18)
(64.47957 6.0954121 -2.3794949e-18)
(64.569334 4.8204719 0)
(64.88009 5.5815305 0)
(64.824088 4.8609124 -5.5552908e-19)
(64.990798 5.1661083 -2.6102045e-19)
(64.939573 4.7484667 2.4434e-19)
(65.032738 4.7846125 0)
(65.020019 4.5064176 0)
(65.080849 4.3944722 2.0019948e-19)
(65.108318 4.1660047 0)
(65.160635 3.9697294 3.5025745e-19)
(65.164033 3.7195139 0)
(65.105474 3.4477457 -1.5308462e-19)
(64.954695 3.1463782 2.8613848e-19)