/*--------------------------------*- C++ -*----------------------------------*\
| =========                 |                                                 |
| \\      /  F ield         | OpenFOAM: The Open Source CFD Toolbox           |
|  \\    /   O peration     | Version:  2206                                  |
|   \\  /    A nd           | Website:  www.openfoam.com                      |
|    \\/     M anipulation  |                                                 |
\*---------------------------------------------------------------------------*/
FoamFile
{
    version     2.0;
    format      ascii;
    arch        "LSB;label=32;scalar=64";
    class       volScalarField;
    location    "0";
    object      yPlus;
}
// * * * * * * * * * * * * * * * * * * * * * * * * * * * * * * * * * * * * * //

dimensions      [0 0 0 0 0 0 0];

internalField   uniform 0;

boundaryField
{
    Side
    {
        type            empty;
    }
    Inlet
    {
        type            calculated;
        value           uniform 0;
    }
    Outlet
    {
        type            calculated;
        value           uniform 0;
    }
    Flap
    {
        type            calculated;
        value           nonuniform List<scalar> 
107
(
4.7709233
7.0244263
5.9766917
5.4897635
5.3274771
4.9515938
4.9005181
4.9045303
4.8926301
4.91079
4.9782764
5.0719625
5.1765849
5.3051587
5.4437616
5.5958268
5.7478856
5.911243
6.0826091
6.2600984
6.4477798
6.6577327
6.9079981
7.1999111
7.6321399
8.3396135
9.1505592
9.0448308
7.3637073
15.340547
15.446972
15.556921
15.590128
15.472777
15.230112
14.913005
14.544229
14.083262
13.539762
12.983825
12.485038
12.014606
12.876681
12.564491
12.210878
11.879238
11.543489
11.211986
10.886838
10.465439
9.9367835
9.3061868
8.4083873
7.0501609
5.8972465
5.4407141
5.1716673
4.1585289
54.190326
54.240514
62.518936
73.679383
79.704652
92.77065
96.469979
99.01355
97.054253
92.831488
86.893634
80.564955
73.195095
66.475291
59.159436
52.975488
46.885045
41.906714
37.571568
34.212208
31.230849
28.869991
26.94986
25.169914
24.025335
22.906638
22.154888
21.575735
20.988306
20.528793
20.155052
19.77937
19.408185
19.031467
18.695518
18.405652
18.158548
17.905123
17.62112
17.320732
16.980723
16.604249
16.239055
15.936587
15.655329
15.454547
15.301603
15.236985
15.283152
)
;
    }
    Airfoil
    {
        type            calculated;
        value           nonuniform List<scalar> 
176
(
17.029253
15.623486
14.505205
13.476806
12.621104
11.899827
11.411673
11.268878
11.121322
11.012461
10.926635
10.860067
10.839815
10.81258
10.799786
10.837357
10.861955
10.889378
10.948509
11.012685
11.080773
11.16015
11.257748
11.380422
11.52871
11.699132
11.890629
12.087362
12.295496
12.533881
12.765169
12.980187
13.187319
13.364707
11.756911
12.056809
12.445613
12.867858
13.091845
13.012985
12.925719
13.282165
13.920273
14.593471
15.305577
16.041988
16.805702
17.860578
16.874492
3.4758414
4.153202
4.2455964
4.3659796
4.4306939
4.5605915
4.7525245
4.9668522
5.1664704
5.3681838
5.597595
5.8268211
6.001614
6.1435476
6.3061455
6.4352618
6.4872033
6.5168824
6.562724
6.6282305
6.6984048
6.7676649
6.8544968
6.9633796
7.0766617
7.1661039
7.2323134
7.2834134
7.3366474
7.4026176
7.4885561
7.6080028
7.7510455
7.9288399
8.1538572
8.4263463
8.7854334
9.3189363
9.8745034
11.053716
10.659085
10.230352
9.798351
9.3751105
8.9612585
8.5662638
8.1947146
7.8524519
7.5370822
7.249479
6.9876889
6.7495268
6.5355081
6.3415478
6.1672757
6.0090491
5.8662781
5.7412291
5.6293745
5.5302458
5.4378356
5.3555484
5.2744066
5.180485
5.0612844
4.9131016
4.7531069
4.5998315
4.4580648
4.3471327
4.2600083
4.1831279
4.1460864
4.0442254
3.9753978
3.9378718
4.098487
1.2269461
11.511136
11.951703
12.299211
11.685016
12.377902
13.097283
13.918502
14.799682
15.637784
16.128216
16.374177
16.438628
16.428851
16.373902
16.278445
16.162853
16.026732
15.886745
15.718887
15.49146
15.240877
15.019257
14.858188
14.753433
14.695735
14.614595
14.559153
14.498731
14.356961
14.081047
13.872467
14.016188
14.010384
13.858592
13.584436
13.254678
12.8151
12.306953
11.839025
10.711451
10.804896
10.901333
10.957222
10.94709
10.892514
10.85564
10.78623
10.661426
10.360838
)
;
    }
}


// ************************************************************************* //
