/*--------------------------------*- C++ -*----------------------------------*\
| =========                 |                                                 |
| \\      /  F ield         | OpenFOAM: The Open Source CFD Toolbox           |
|  \\    /   O peration     | Version:  2206                                  |
|   \\  /    A nd           | Website:  www.openfoam.com                      |
|    \\/     M anipulation  |                                                 |
\*---------------------------------------------------------------------------*/
FoamFile
{
    version     2.0;
    format      ascii;
    arch        "LSB;label=32;scalar=64";
    class       surfaceScalarField;
    location    "0.02";
    object      phi;
}
// * * * * * * * * * * * * * * * * * * * * * * * * * * * * * * * * * * * * * //

dimensions      [1 0 -1 0 0 0 0];

oriented        oriented;

internalField   nonuniform List<scalar> 
2597
(
-0.0023038659
0.0013113015
0.002347576
-0.0022601559
0.0013113015
-0.0022164458
0.0013113015
-0.0021727358
0.0013113015
-0.0021290257
0.0013113015
-0.0020853157
0.0013113015
-0.0020416056
0.0013113015
-0.0019978956
0.0013113015
-0.0019541855
0.0013113015
-0.0019104755
0.0013113015
-0.0018667654
0.0013113015
-0.0018230554
0.0013113015
-0.0017793453
0.0013113015
0.0013113015
-0.0017356353
-0.0023038659
0.0012675914
0.0023475759
-0.0022601558
0.0012675914
-0.0022164458
0.0012675914
-0.0021727357
0.0012675914
-0.0021290257
0.0012675914
-0.0020853156
0.0012675914
-0.0020416056
0.0012675914
-0.0019978955
0.0012675914
-0.0019541855
0.0012675914
-0.0019104754
0.0012675914
-0.0018667654
0.0012675914
-0.0018230553
0.0012675914
-0.0017793453
0.0012675914
0.0012675914
-0.0017356352
-0.0023038659
0.0012238814
0.002347576
-0.0022601559
0.0012238814
-0.0022164458
0.0012238814
-0.0021727358
0.0012238814
-0.0021290257
0.0012238814
-0.0020853157
0.0012238814
-0.0020416056
0.0012238814
-0.0019978956
0.0012238814
-0.0019541855
0.0012238814
-0.0019104755
0.0012238814
-0.0018667654
0.0012238814
-0.0018230554
0.0012238814
-0.0017793453
0.0012238814
0.0012238814
-0.0017356353
-0.035083268
0.034733588
-0.035432948
-0.035782629
-0.036132309
-0.03648199
-0.03683167
-0.03718135
-0.037531031
-0.037880711
-0.038230392
-0.038580072
-0.038929752
-0.039279433
-0.039629113
0.013369054
0.0023007553
0.013415875
0.0023007553
0.0023007553
0.013462695
0.013369054
0.0022539347
0.013415875
0.0022539347
0.0022539348
0.013462695
0.013369054
0.0022071141
0.013415875
0.0022071141
0.0022071141
0.013462695
0.013369054
0.0021602935
0.013415875
0.0021602935
0.0021602935
0.013462695
0.013322233
0.0021134729
0.013369054
0.0021134729
0.013415875
0.0021134729
0.0021134729
0.013462695
0.013322233
0.0020666523
0.013369054
0.0020666523
0.013415875
0.0020666523
0.0020666523
0.013462695
0.013322233
0.0020198317
0.013369054
0.0020198317
0.013415875
0.0020198317
0.0020198317
0.013462695
0.013322233
0.0019730111
0.013369054
0.0019730111
0.013415875
0.0019730112
0.0019730111
0.013462695
0.013275413
0.0019261906
0.013322233
0.0019261904
0.013369054
0.0019261905
0.013415875
0.0019261904
0.0019261906
0.013462695
0.013275413
0.0018793699
0.013322233
0.0018793699
0.013369054
0.0018793699
0.013415875
0.0018793699
0.0018793699
0.013462695
0.013275413
0.0018325492
0.013322233
0.0018325494
0.013369054
0.0018325492
0.013415875
0.0018325493
0.0018325492
0.013462695
0.013228592
0.0017857286
0.013275413
0.0017857286
0.013322234
0.0017857286
0.013369054
0.0017857287
0.013415875
0.0017857286
0.0017857286
0.013462695
0.013228592
0.0017389082
0.013275413
0.001738908
0.013322233
0.001738908
0.013369054
0.0017389081
0.013415875
0.0017389081
0.001738908
0.013462695
0.013181772
0.0016920874
0.013228592
0.0016920875
0.013275413
0.0016920874
0.013322233
0.0016920874
0.013369054
0.0016920874
0.013415875
0.0016920875
0.013462695
0.0016920874
-0.0010586241
0.0026324022
-0.00099707758
0.0026324021
-0.00093553112
0.0026324022
0.0026324022
-0.00087398466
-0.0016740888
0.0025708557
-0.0016125424
0.0025708557
-0.0015509958
0.0025708557
-0.0014894494
0.0025708557
-0.0014279029
0.0025708557
-0.0013663564
0.0025708557
-0.00130481
0.0025708557
-0.0012432635
0.0025708557
-0.001181717
0.0025708557
-0.0011201706
0.0025708557
-0.001058624
0.0025708557
-0.00099707762
0.0025708557
-0.00093553112
0.0025708557
0.0025708557
-0.00087398466
-0.0016740888
0.0025093093
-0.0016125423
0.0025093092
-0.0015509958
0.0025093092
-0.0014894493
0.0025093092
-0.0014279029
0.0025093093
-0.0013663564
0.0025093092
-0.00130481
0.0025093092
-0.0012432635
0.0025093092
-0.001181717
0.0025093093
-0.0011201705
0.0025093092
-0.0010586241
0.0025093092
-0.00099707758
0.0025093092
-0.00093553116
0.0025093093
0.0025093092
-0.00087398466
-0.0016740888
0.0024477628
-0.0016125423
0.0024477628
-0.0015509958
0.0024477628
-0.0014894494
0.0024477628
-0.0014279029
0.0024477628
-0.0013663564
0.0024477628
-0.00130481
0.0024477628
-0.0012432635
0.0024477628
-0.001181717
0.0024477628
-0.0011201705
0.0024477628
-0.0010586241
0.0024477628
-0.00099707763
0.0024477628
-0.00093553112
0.0024477628
-0.00087398466
0.0024477628
-0.00082804503
0.0013617002
-0.00078210546
0.0013617002
-0.00073616587
0.0013617002
-0.00069022624
0.0013617002
-0.00064428665
0.0013617002
-0.00059834702
0.0013617002
-0.00055240748
0.0013617002
-0.00050646785
0.0013617002
-0.00046052823
0.0013617002
-0.00041458865
0.0013617002
-0.00036864902
0.0013617002
-0.00032270944
0.0013617002
-0.00027676985
0.0013617002
0.0013617001
-0.00023083015
-0.00082804508
0.0013157606
-0.00078210549
0.0013157606
-0.00073616582
0.0013157605
-0.00069022624
0.0013157606
-0.00064428665
0.0013157606
-0.00059834707
0.0013157606
-0.00055240744
0.0013157606
-0.00050646786
0.0013157606
-0.00046052822
0.0013157605
-0.00041458865
0.0013157606
-0.00036864906
0.0013157606
-0.00032270943
0.0013157606
-0.00027676984
0.0013157606
0.0013157605
-0.00023083023
-0.00082804504
0.001269821
-0.00078210545
0.001269821
-0.00073616587
0.001269821
-0.00069022628
0.001269821
-0.00064428665
0.001269821
-0.00059834702
0.001269821
-0.00055240745
0.001269821
-0.00050646781
0.001269821
-0.00046052828
0.001269821
-0.00041458865
0.001269821
-0.00036864902
0.001269821
-0.00032270943
0.001269821
-0.00027676981
0.001269821
0.001269821
-0.00023083028
-0.00082804508
0.0012238814
-0.00078210546
0.0012238814
-0.00073616587
0.0012238814
-0.00069022623
0.0012238814
-0.00064428665
0.0012238814
-0.00059834707
0.0012238814
-0.00055240744
0.0012238814
-0.00050646786
0.0012238814
-0.00046052823
0.0012238814
-0.00041458865
0.0012238814
-0.00036864906
0.0012238814
-0.00032270943
0.0012238814
-0.00027676984
0.0012238814
-0.00023083023
0.0012238814
-0.0011583163
0.0010831762
-0.0011487413
0.0012238814
-0.0010927512
0.0010831762
-0.0011487413
-0.0010271862
0.0010831762
-0.0011487413
0.0010831761
-0.0011487412
-0.0011583163
0.0010176111
0.0012238814
-0.0010927512
0.0010176111
-0.0010271862
0.0010176112
0.0010176111
-0.0011583163
0.00095204602
0.0012238814
-0.0010927512
0.00095204606
-0.0010271861
0.00095204602
0.0009520461
-0.0011583163
0.00088648095
0.0012238814
-0.0010927512
0.000886481
-0.0010271862
0.00088648095
0.00088648095
-0.0011583163
0.00082091589
0.0012238814
-0.0010927512
0.00082091593
-0.0010271862
0.00082091589
0.00082091589
-0.0011583164
0.00075535083
0.0012238814
-0.0010927512
0.00075535079
-0.0010271862
0.00075535083
0.00075535083
-0.0011583163
0.00068978576
0.0012238814
-0.0010927512
0.00068978572
-0.0010271862
0.00068978576
0.00068978576
-0.0011583163
0.0006242207
0.0012238814
-0.0010927512
0.00062422066
-0.0010271862
0.0006242207
0.0006242207
-0.0011583163
0.00055865555
0.0012238814
-0.0010927513
0.00055865568
-0.0010271862
0.00055865555
0.00055865555
-0.0011583163
0.00049309049
0.0012238814
-0.0010927512
0.00049309062
-0.0010271862
0.00049309049
0.00049309049
-0.0011583163
0.00042752542
0.0012238814
-0.0010927512
0.00042752555
-0.0010271862
0.00042752542
0.00042752542
-0.0011583164
0.00036196045
0.0012238814
-0.0010927512
0.0003619604
-0.0010271862
0.00036196036
0.00036196036
-0.0011583163
0.0002963953
0.0012238814
-0.0010927512
0.00029639534
-0.0010271862
0.0002963953
0.0002963953
-0.0011583163
0.0012238814
-0.0010927512
-0.0010271862
-0.0012972674
0.0093454729
-0.0014457934
0.0093454728
-0.0015943195
0.0093454729
-0.0017428456
0.0093454729
-0.0018913716
0.0093454728
-0.0020398977
0.0093454729
-0.0021884237
0.0093454728
-0.0023369498
0.0093454729
-0.0024854759
0.0093454728
-0.002634002
0.0093454729
-0.002782528
0.0093454728
-0.0029310541
0.0093454729
-0.0030795801
0.0093454729
0.0093454728
-0.0032281061
-0.0012972673
0.009493999
-0.0014457934
0.0094939989
-0.0015943194
0.0094939989
-0.0017428456
0.009493999
-0.0018913716
0.0094939989
-0.0020398976
0.0094939989
-0.0021884238
0.009493999
-0.0023369498
0.0094939989
-0.0024854759
0.0094939989
-0.0026340019
0.009493999
-0.002782528
0.0094939989
-0.0029310541
0.0094939989
-0.0030795801
0.009493999
0.0094939989
-0.0032281063
-0.0012972673
0.009642525
-0.0014457934
0.009642525
-0.0015943194
0.009642525
-0.0017428455
0.009642525
-0.0018913716
0.009642525
-0.0020398977
0.009642525
-0.0021884237
0.009642525
-0.0023369497
0.009642525
-0.0024854759
0.009642525
-0.0026340019
0.009642525
-0.002782528
0.009642525
-0.0029310541
0.009642525
-0.0030795801
0.009642525
0.009642525
-0.0032281062
-0.0012972673
0.0097910511
-0.0014457935
0.0097910511
-0.0015943195
0.0097910511
-0.0017428456
0.0097910511
-0.0018913716
0.0097910511
-0.0020398977
0.0097910511
-0.0021884238
0.0097910511
-0.0023369498
0.0097910511
-0.002485476
0.0097910511
-0.002634002
0.0097910511
-0.002782528
0.0097910511
-0.0029310541
0.0097910511
-0.0030795802
0.0097910511
-0.0032281063
0.0097910511
0.29194372
-0.00067778402
0.29198385
0.29198385
-0.00063765209
0.29202398
-0.00067778402
0.29202398
0.29202398
-0.00059752011
0.29206411
-0.00063765204
0.29206411
-0.00067778402
0.29206411
0.29206411
0.2866228
0.0015743893
0.28675839
0.0015743885
0.28689398
0.0015743885
0.28702957
0.0015743885
0.28716516
0.0015743893
0.0015743885
0.28730074
0.28553809
0.0014387994
-0.2854025
0.28567367
0.0014387995
0.28580926
0.0014387994
0.28594485
0.0014387994
0.28608044
0.0014387995
0.28621603
0.0014387994
0.28635162
0.0014387994
0.28648721
0.0014387995
0.2866228
0.0014387994
0.28675839
0.0014387994
0.28689398
0.0014388003
0.28702957
0.0014387994
0.28716516
0.0014387994
0.0014387995
0.28730074
0.28553808
0.0013032104
-0.2854025
0.28567367
0.0013032103
0.28580926
0.0013032104
0.28594485
0.0013032095
0.28608044
0.0013032103
0.28621603
0.0013032104
0.28635162
0.0013032103
0.28648721
0.0013032104
0.2866228
0.0013032095
0.28675839
0.0013032104
0.28689398
0.0013032103
0.28702957
0.0013032104
0.28716516
0.0013032095
0.0013032104
0.28730075
0.28553808
0.0011676213
-0.2854025
0.28567367
0.0011676204
0.28580926
0.0011676213
0.28594485
0.0011676205
0.28608044
0.0011676213
0.28621603
0.0011676204
0.28635162
0.0011676213
0.28648721
0.0011676213
0.2866228
0.0011676204
0.28675839
0.0011676213
0.28689398
0.0011676205
0.28702957
0.0011676213
0.28716516
0.0011676204
0.0011676213
0.28730074
0.28553809
0.0010320314
-0.2854025
0.28567367
0.0010320323
0.28580926
0.0010320314
0.28594485
0.0010320314
0.28608044
0.0010320323
0.28621603
0.0010320314
0.28635162
0.0010320314
0.28648721
0.0010320323
0.2866228
0.0010320314
0.28675839
0.0010320314
0.28689398
0.0010320322
0.28702957
0.0010320314
0.28716516
0.0010320314
0.0010320323
0.28730074
0.28553808
0.00089644233
-0.2854025
0.28567367
0.00089644233
0.28580926
0.00089644233
0.28594485
0.00089644233
0.28608044
0.00089644237
0.28621603
0.00089644233
0.28635162
0.00089644318
0.28648721
0.00089644233
0.2866228
0.00089644233
0.28675839
0.00089644233
0.28689398
0.00089644233
0.28702957
0.00089644233
0.28716516
0.00089644233
0.00089644233
0.28730075
0.28553809
0.0007608524
-0.2854025
0.28567367
0.00076085326
0.28580926
0.0007608533
0.28594485
0.00076085326
0.28608044
0.00076085326
0.28621603
0.00076085326
0.28635162
0.0007608533
0.28648721
0.00076085326
0.2866228
0.00076085326
0.28675839
0.00076085326
0.28689398
0.00076085244
0.28702957
0.00076085326
0.28716516
0.00076085326
0.00076085326
0.28730074
0.28553808
0.00062526423
-0.2854025
0.28567367
0.00062526419
0.28580926
0.00062526337
0.28594485
0.00062526419
0.28608044
0.00062526423
0.28621603
0.00062526333
0.28635162
0.00062526419
0.28648721
0.00062526423
0.2866228
0.00062526333
0.28675839
0.00062526423
0.28689398
0.00062526419
0.28702957
0.00062526423
0.28716516
0.00062526333
0.00062526423
0.28730074
0.28553808
0.00048967512
-0.2854025
0.28567367
0.0004896743
0.28580926
0.00048967516
0.28594485
0.00048967426
0.28608044
0.00048967516
0.28621603
0.0004896743
0.28635162
0.00048967426
0.28648721
0.00048967516
0.2866228
0.0004896743
0.28675839
0.00048967512
0.28689398
0.0004896743
0.28702957
0.00048967512
0.28716516
0.0004896743
0.00048967516
0.28730074
0.28553809
0.00035408524
-0.2854025
0.28567367
0.00035408609
0.28580926
0.00035408524
0.28594485
0.00035408524
0.28608044
0.00035408524
0.28621603
0.00035408519
0.28635162
0.00035408609
0.28648721
0.00035408524
0.2866228
0.00035408524
0.28675839
0.00035408524
0.28689398
0.00035408605
0.28702957
0.00035408524
0.28716516
0.00035408524
0.00035408524
0.28730075
0.28553808
-0.2854025
0.28567367
0.28580926
0.28594485
0.28608044
0.28621603
0.28635162
0.28648721
0.2866228
0.28675839
0.28689398
0.28702957
0.28716516
0.28730074
0.28739485
-0.00034381882
0.28748896
-0.00034381882
0.28758307
-0.00034381882
0.28767718
-0.00034381882
0.28777129
-0.00034381796
0.2878654
-0.00034381878
0.28795951
-0.00034381882
0.28805362
-0.00034381882
0.28814772
-0.00034381882
0.28824183
-0.00034381796
0.28833594
-0.00034381882
0.28843005
-0.00034381882
0.28852416
-0.00034381882
-0.00034381882
0.28861827
0.28739485
-0.00043792687
0.28748896
-0.00043792773
0.28758307
-0.00043792687
0.28767718
-0.00043792773
0.28777129
-0.00043792777
0.2878654
-0.00043792687
0.28795951
-0.00043792773
0.28805362
-0.00043792773
0.28814772
-0.00043792687
0.28824183
-0.00043792773
0.28833594
-0.00043792777
0.28843005
-0.00043792687
0.28852416
-0.00043792773
-0.00043792687
0.28861827
0.28739485
-0.00053203577
0.28748896
-0.00053203663
0.28758307
-0.00053203582
0.28767718
-0.00053203663
0.28777129
-0.00053203582
0.2878654
-0.00053203663
0.28795951
-0.00053203577
0.28805361
-0.00053203582
0.28814772
-0.00053203663
0.28824183
-0.00053203577
0.28833594
-0.00053203667
0.28843005
-0.00053203577
0.28852416
-0.00053203667
-0.00053203577
0.28861827
0.28739485
-0.00062614472
0.28748896
-0.00062614558
0.28758307
-0.00062614468
0.28767718
-0.00062614472
0.28777129
-0.00062614468
0.2878654
-0.00062614558
0.28795951
-0.00062614472
0.28805362
-0.00062614468
0.28814772
-0.00062614558
0.28824183
-0.00062614472
0.28833594
-0.00062614468
0.28843005
-0.00062614472
0.28852416
-0.00062614553
-0.00062614472
0.28861827
0.28739485
-0.00072025448
0.28748896
-0.00072025363
0.28758307
-0.00072025363
0.28767718
-0.00072025363
0.28777129
-0.00072025358
0.2878654
-0.00072025363
0.28795951
-0.00072025363
0.28805362
-0.00072025363
0.28814772
-0.00072025363
0.28824183
-0.00072025363
0.28833594
-0.00072025358
0.28843005
-0.00072025363
0.28852416
-0.00072025363
-0.00072025448
0.28861827
0.28739485
-0.00081436253
0.28748896
-0.00081436253
0.28758307
-0.00081436167
0.28767718
-0.00081436253
0.28777129
-0.00081436253
0.2878654
-0.00081436257
0.28795951
-0.00081436253
0.28805362
-0.00081436253
0.28814772
-0.00081436253
0.28824183
-0.00081436253
0.28833594
-0.00081436253
0.28843005
-0.00081436167
0.28852416
-0.00081436253
-0.00081436253
0.28861827
0.28739485
-0.00090847144
0.28748896
-0.00090847062
0.28758307
-0.00090847144
0.28767718
-0.00090847144
0.28777129
-0.00090847144
0.2878654
-0.00090847062
0.28795951
-0.00090847144
0.28805362
-0.00090847144
0.28814772
-0.00090847062
0.28824183
-0.00090847144
0.28833594
-0.00090847144
0.28843005
-0.00090847144
0.28852416
-0.00090847062
-0.00090847144
0.28861827
0.28739485
-0.0010025803
0.28748896
-0.0010025795
0.28758307
-0.0010025803
0.28767718
-0.0010025795
0.28777129
-0.0010025803
0.2878654
-0.0010025795
0.28795951
-0.0010025803
0.28805362
-0.0010025804
0.28814772
-0.0010025795
0.28824183
-0.0010025804
0.28833594
-0.0010025795
0.28843005
-0.0010025804
0.28852416
-0.0010025795
-0.0010025804
0.28861827
0.28739485
-0.0010966884
0.28748896
-0.0010966884
0.28758307
-0.0010966893
0.28767718
-0.0010966884
0.28777129
-0.0010966884
0.2878654
-0.0010966893
0.28795951
-0.0010966884
0.28805361
-0.0010966884
0.28814772
-0.0010966892
0.28824183
-0.0010966884
0.28833594
-0.0010966884
0.28843005
-0.0010966893
0.28852416
-0.0010966884
-0.0010966884
0.28861827
0.28739485
-0.0011907973
0.28748896
-0.0011907973
0.28758307
-0.0011907973
0.28767718
-0.0011907982
0.28777129
-0.0011907973
0.2878654
-0.0011907973
0.28795951
-0.0011907973
0.28805362
-0.0011907973
0.28814772
-0.0011907973
0.28824183
-0.0011907973
0.28833594
-0.0011907982
0.28843005
-0.0011907973
0.28852416
-0.0011907973
-0.0011907973
0.28861827
0.28739485
0.28748896
0.28758307
0.28767718
0.28777129
0.2878654
-0.0012849063
0.28795951
-0.0012849062
0.28805362
-0.0012849062
0.28814772
-0.0012849062
0.28824183
-0.0012849062
0.28833594
-0.0012849062
0.28843005
-0.0012849063
0.28852416
-0.0012849062
-0.0012849062
0.28861827
0.2878654
0.28795951
0.28805362
0.28814772
0.28824183
0.28833594
0.28843005
0.28852416
0.28861827
-0.0039561619
0.28589537
0.28589537
-0.003956161
0.28582496
-0.0038857517
0.28582496
-0.0038153405
0.28582496
0.28582496
-0.0039561619
0.28575455
-0.0038857508
0.28575455
-0.0038153405
0.28575455
-0.0037449302
0.28575455
-0.0036745191
0.28575455
0.28575455
-0.0039561619
0.28568414
-0.0038857508
0.28568414
-0.0038153405
0.28568414
-0.0037449294
0.28568414
-0.0036745191
0.28568414
-0.0036041088
0.28568414
0.28568414
-0.0039561611
0.28561373
-0.0038857508
0.28561373
-0.0038153405
0.28561373
-0.0037449302
0.28561373
-0.003674519
0.28561373
-0.0036041079
0.28561373
-0.0035336984
0.28561373
0.28561373
-0.0039561619
0.28554332
-0.0038857516
0.28554332
-0.0038153405
0.28554332
-0.0037449302
0.28554332
-0.0036745191
0.28554332
-0.0036041088
0.28554332
-0.0035336976
0.28554332
0.28554332
-0.0039561619
0.28547291
-0.0038857508
0.28547291
-0.0038153405
0.28547291
-0.0037449293
0.28547291
-0.0036745199
0.28547291
-0.0036041088
0.28547291
-0.0035336985
0.28547291
-0.0034632873
0.28547291
0.28547291
-0.003956161
-0.0038857508
-0.0038153396
-0.0037449302
-0.0036745191
-0.0036041088
-0.0035336976
-0.0034632873
-0.0033928762
-0.291965
-0.0032204824
0.29195738
-0.29197263
-0.0032204825
-0.29198025
-0.0032204824
-0.29198788
-0.0032204825
-0.2919955
-0.0032204825
-0.0032204824
-0.291965
-0.0032128587
0.29195738
-0.29197263
-0.0032128587
-0.29198025
-0.0032128587
-0.29198788
-0.0032128587
-0.2919955
-0.0032128588
-0.29200312
-0.0032128587
-0.29201075
-0.0032128587
-0.0032128587
-0.291965
-0.003205235
0.29195738
-0.29197263
-0.0032052342
-0.29198025
-0.003205235
-0.29198788
-0.003205235
-0.2919955
-0.003205235
-0.29200312
-0.003205235
-0.29201075
-0.003205235
-0.29201837
-0.003205235
-0.003205235
-0.291965
-0.0031976118
0.29195738
-0.29197263
-0.0031976109
-0.29198025
-0.0031976109
-0.29198787
-0.0031976118
-0.2919955
-0.0031976109
-0.29200312
-0.0031976109
-0.29201075
-0.0031976118
-0.29201837
-0.003197611
-0.29202599
-0.0031976109
-0.0031976118
-0.291965
-0.0031899878
0.29195738
-0.29197263
-0.0031899878
-0.29198025
-0.0031899869
-0.29198788
-0.0031899878
-0.2919955
-0.0031899877
-0.29200312
-0.0031899869
-0.29201075
-0.0031899878
-0.29201837
-0.0031899878
-0.29202599
-0.0031899878
-0.29203362
-0.0031899869
-0.0031899878
-0.291965
-0.0031823637
0.29195738
-0.29197263
-0.0031823637
-0.29198025
-0.0031823637
-0.29198788
-0.0031823637
-0.2919955
-0.0031823637
-0.29200312
-0.0031823646
-0.29201075
-0.0031823637
-0.29201837
-0.0031823637
-0.29202599
-0.0031823637
-0.29203362
-0.0031823637
-0.29204124
-0.0031823637
-0.0031823637
-0.291965
-0.0031747396
0.29195738
-0.29197263
-0.0031747405
-0.29198025
-0.0031747396
-0.29198787
-0.0031747405
-0.2919955
-0.0031747396
-0.29200312
-0.0031747405
-0.29201075
-0.0031747396
-0.29201837
-0.0031747396
-0.29202599
-0.0031747405
-0.29203362
-0.0031747396
-0.29204124
-0.0031747405
-0.29204887
-0.0031747396
-0.0031747405
-0.291965
-0.0031671164
0.29195738
-0.29197263
-0.0031671156
-0.29198025
-0.0031671164
-0.29198788
-0.0031671164
-0.2919955
-0.0031671164
-0.29200312
-0.0031671164
-0.29201075
-0.0031671156
-0.29201837
-0.0031671164
-0.29202599
-0.0031671164
-0.29203362
-0.0031671164
-0.29204124
-0.0031671164
-0.29204887
-0.0031671156
-0.0031671164
-0.291965
-0.0031594924
0.29195738
-0.29197263
-0.0031594924
-0.29198025
-0.0031594924
-0.29198788
-0.0031594924
-0.2919955
-0.0031594932
-0.29200312
-0.0031594924
-0.29201075
-0.0031594924
-0.29201837
-0.0031594924
-0.29202599
-0.0031594924
-0.29203362
-0.0031594924
-0.29204124
-0.0031594932
-0.29204886
-0.0031594924
-0.0031594924
-0.291965
-0.0031518683
0.29195738
-0.29197263
-0.0031518692
-0.29198025
-0.0031518683
-0.29198787
-0.0031518692
-0.2919955
-0.0031518683
-0.29200312
-0.0031518692
-0.29201075
-0.0031518683
-0.29201837
-0.0031518692
-0.29202599
-0.0031518683
-0.29203362
-0.0031518692
-0.29204124
-0.0031518683
-0.29204887
-0.0031518692
-0.29205649
-0.0031518683
-0.0031518692
-0.291965
-0.0031442451
0.29195738
-0.29197263
-0.0031442451
-0.29198025
-0.0031442451
-0.29198788
-0.0031442451
-0.2919955
-0.0031442451
-0.29200312
-0.0031442451
-0.29201075
-0.0031442451
-0.29201837
-0.0031442451
-0.29202599
-0.0031442451
-0.29203362
-0.0031442442
-0.29204124
-0.0031442451
-0.29204887
-0.0031442451
-0.29205649
-0.0031442451
-0.0031442451
-0.291965
-0.0031366219
0.29195738
-0.29197263
-0.003136621
-0.29198025
-0.003136621
-0.29198788
-0.0031366211
-0.2919955
-0.0031366219
-0.29200312
-0.003136621
-0.29201075
-0.003136621
-0.29201837
-0.003136621
-0.29202599
-0.0031366219
-0.29203362
-0.003136621
-0.29204124
-0.003136621
-0.29204887
-0.003136621
-0.29205649
-0.0031366219
-0.003136621
-0.291965
-0.0031289979
0.29195738
-0.29197263
-0.003128997
-0.29198025
-0.0031289979
-0.29198787
-0.0031289979
-0.2919955
-0.003128997
-0.29200312
-0.0031289978
-0.29201075
-0.0031289979
-0.29201837
-0.003128997
-0.29202599
-0.0031289979
-0.29203362
-0.003128997
-0.29204124
-0.0031289978
-0.29204886
-0.0031289979
-0.29205649
-0.003128997
-0.0031289979
-0.291965
-0.29197263
-0.29198025
-0.29198788
-0.2919955
-0.29200312
-0.29201075
-0.29201837
-0.29202599
-0.29203362
-0.29204124
-0.29204887
-0.29205649
-0.038794217
0.039017172
-0.038571262
-0.038348307
-0.038125351
-0.037902396
-0.037679441
-0.037456486
-0.03723353
-0.037010575
-0.03678762
-0.036564664
-0.036341709
-0.0094413707
0.039366853
0.039366853
-0.0094413706
0.039716533
0.039716533
-0.0094413707
0.040066214
0.040066214
-0.0094413707
0.040415894
0.040415894
-0.0094413706
0.040765574
0.040765574
-0.0094413707
0.041115255
0.041115255
-0.0094413706
0.041464935
0.041464935
-0.0094413707
0.041814616
0.041814616
-0.0094413707
0.042164296
0.042164296
-0.0094413706
0.042513976
0.042513976
-0.0094413707
0.042863657
0.042863657
-0.0094413707
0.043213337
0.043213337
-0.0094413706
0.043563018
0.043563018
-0.0094413707
0.043912698
0.043912698
0.0013113014
0.043825278
0.043825278
0.0013113015
0.043737858
0.043737858
0.0013113014
0.043650438
0.043650438
0.0013113015
0.043563018
0.043563018
0.0013113014
0.043475597
0.043475597
0.0013113015
0.043388177
0.043388177
0.0013113014
0.043300757
0.043300757
0.0013113014
0.043213337
0.043213337
0.0013113015
0.043125917
0.043125917
0.0013113014
0.043038497
0.043038497
0.0013113015
0.042951077
0.042951077
0.0013113014
0.042863657
0.042863657
0.0013113015
0.042776237
0.042776237
0.0013113014
0.042688817
0.042688817
-0.041552355
0.041464935
-0.041639775
-0.041727196
-0.041814616
-0.041902036
-0.041989456
-0.042076876
-0.042164296
-0.042251716
-0.042339136
-0.042426556
-0.042513976
-0.0013113014
-0.042601397
-0.042601396
-0.0013113015
-0.039760243
0.0025788929
-0.039891373
0.0025788929
-0.040022504
0.0025788929
-0.040153634
0.0025788929
-0.040284764
0.0025788929
-0.040415894
0.0025788929
-0.040547024
0.0025788929
-0.040678154
0.0025788929
-0.040809284
0.0025788929
-0.040940415
0.0025788929
-0.041071545
0.0025788929
-0.041202675
0.0025788929
-0.041333805
0.0025788929
0.0025788929
-0.039760243
-0.039891373
-0.040022504
-0.040153634
-0.040284764
-0.040415894
-0.040547024
-0.040678154
-0.040809284
-0.040940415
-0.041071545
-0.041202675
-0.041333805
-0.013156725
-0.038711202
-0.038711202
0.039017172
-0.013156725
-0.038405232
-0.038405232
-0.013156725
-0.038099261
-0.038099261
-0.013156725
-0.037793291
-0.037793291
-0.013156725
-0.037487321
-0.037487321
-0.013156725
-0.03718135
-0.03718135
-0.013156725
-0.03687538
-0.03687538
-0.013156725
-0.03656941
-0.03656941
-0.013156725
-0.036263439
-0.036263439
-0.013156725
-0.035957469
-0.035957469
-0.013156725
-0.035651499
-0.035651499
-0.013156725
-0.035345528
-0.035345528
-0.013156725
-0.035039558
-0.035039558
-0.013156725
0.28877527
0.00068950749
0.28881452
0.00068950749
0.28885377
0.00068950749
0.28889302
0.00068950749
0.28893228
0.00068950753
0.28897153
0.00068950749
0.28901078
0.0006895074
0.28905003
0.00068950749
0.28908928
0.00068950749
0.28912853
0.00068950753
0.00068950749
0.28916778
0.28865752
0.00065025613
0.28869677
0.00065025699
0.28873602
0.00065025613
0.28877527
0.00065025699
0.28881452
0.00065025613
0.28885377
0.00065025699
0.28889302
0.00065025613
0.28893228
0.00065025699
0.28897153
0.00065025613
0.28901078
0.00065025699
0.28905003
0.00065025613
0.28908928
0.00065025699
0.28912853
0.00065025613
0.00065025699
0.28916778
0.28865752
0.00061100554
0.28869677
0.00061100554
0.28873602
0.00061100554
0.28877527
0.0006110055
0.28881452
0.0006110064
0.28885377
0.00061100554
0.28889302
0.00061100554
0.28893228
0.00061100554
0.28897153
0.00061100554
0.28901078
0.0006110055
0.28905003
0.00061100554
0.28908928
0.00061100554
0.28912853
0.00061100554
0.00061100554
0.28916778
0.28865752
0.00057175496
0.28869677
0.00057175491
0.28873602
0.0005717541
0.28877527
0.00057175496
0.28881452
0.00057175491
0.28885377
0.0005717541
0.28889302
0.00057175496
0.28893228
0.00057175491
0.28897153
0.0005717541
0.28901078
0.00057175496
0.28905003
0.00057175491
0.28908928
0.00057175496
0.28912853
0.00057175406
0.00057175496
0.28916778
0.28865752
0.00053250347
0.28869677
0.00053250351
0.28873602
0.00053250433
0.28877527
0.00053250351
0.28881452
0.00053250347
0.28885377
0.00053250351
0.28889302
0.00053250433
0.28893228
0.00053250351
0.28897153
0.00053250347
0.28901078
0.00053250351
0.28905003
0.00053250433
0.28908928
0.00053250351
0.28912853
0.00053250347
0.00053250351
0.28916778
0.28865752
0.00049325288
0.28869677
0.00049325293
0.28873602
0.00049325288
0.28877527
0.00049325203
0.28881452
0.00049325288
0.28885377
0.00049325293
0.28889302
0.00049325288
0.28893228
0.00049325288
0.28897153
0.00049325293
0.28901078
0.00049325288
0.28905003
0.00049325203
0.28908928
0.00049325288
0.28912853
0.00049325293
0.00049325288
0.28916778
0.28865752
0.0004540023
0.28869677
0.00045400144
0.28873602
0.0004540023
0.28877527
0.00045400144
0.28881452
0.00045400234
0.28885377
0.00045400144
0.28889302
0.00045400144
0.28893228
0.0004540023
0.28897153
0.00045400144
0.28901078
0.0004540023
0.28905003
0.00045400144
0.28908928
0.0004540023
0.28912853
0.00045400144
0.0004540023
0.28916778
0.28865752
0.00041475085
0.28869677
0.00041475085
0.28873602
0.00041475085
0.28877527
0.00041475085
0.28881452
0.00041475085
0.28885377
0.00041475085
0.28889302
0.00041475081
0.28893228
0.00041475085
0.28897153
0.00041475085
0.28901078
0.00041475085
0.28905003
0.00041475085
0.28908928
0.00041475085
0.28912853
0.00041475085
0.00041475085
0.28916778
0.28865752
0.00037549941
0.28869677
0.00037550022
0.28873602
0.00037550027
0.28877527
0.00037549941
0.28881452
0.00037550027
0.28885377
0.00037550022
0.28889302
0.00037549941
0.28893228
0.00037550027
0.28897153
0.00037550027
0.28901078
0.00037549937
0.28905003
0.00037550027
0.28908928
0.00037549941
0.28912853
0.00037550027
0.00037550022
0.28916778
0.28865752
0.00033624883
0.28869677
0.00033624964
0.28873602
0.00033624883
0.28877527
0.00033624878
0.28881452
0.00033624883
0.28885377
0.00033624878
0.28889302
0.00033624968
0.28893228
0.00033624878
0.28897153
0.00033624883
0.28901078
0.00033624883
0.28905003
0.00033624964
0.28908928
0.00033624883
0.28912853
0.00033624878
0.00033624883
0.28916778
0.28865752
0.0002969982
0.28869677
0.00029699824
0.28873602
0.00029699819
0.28877527
0.00029699819
0.28881452
0.00029699824
0.28885377
0.00029699734
0.28889302
0.00029699824
0.28893228
0.00029699819
0.28897153
0.00029699819
0.28901078
0.00029699824
0.28905003
0.00029699734
0.28908928
0.00029699819
0.28912853
0.00029699824
0.0002969982
0.28916778
0.28865752
0.00025774675
0.28869677
0.00025774761
0.28873602
0.0002577468
0.28877527
0.00025774675
0.28881452
0.00025774761
0.28885377
0.00025774675
0.28889302
0.00025774761
0.28893228
0.00025774675
0.28897153
0.0002577468
0.28901078
0.00025774761
0.28905003
0.00025774675
0.28908928
0.00025774761
0.28912853
0.00025774675
0.0002577468
0.28916778
0.28865752
0.28869677
0.28873602
0.28877527
0.28881452
0.28885377
0.28889302
0.28893228
0.28897153
0.28901078
0.28905003
0.28908928
0.28912853
0.28916778
-0.000352737
0.28927081
-0.00045576332
0.28927081
-0.00055879127
0.28927081
-0.00066181754
0.28927081
-0.00076484467
0.28927081
-0.00086787095
0.28927081
-0.00097089894
0.28927081
-0.001073926
0.28927081
-0.0011769523
0.28927081
-0.0012799794
0.28927081
-0.0013830066
0.28927081
-0.0014860335
0.28927081
0.28927081
-0.00035273705
0.28937383
-0.00045576414
0.28937383
-0.00055879041
0.28937383
-0.00066181759
0.28937383
-0.00076484467
0.28937383
-0.0008678718
0.28937383
-0.00097089804
0.28937383
-0.0010739252
0.28937383
-0.0011769532
0.28937384
-0.0012799803
0.28937383
-0.0013830066
0.28937383
-0.0014860335
0.28937383
0.28937383
-0.000352737
0.28947686
-0.00045576414
0.28947686
-0.00055879131
0.28947686
-0.0006618184
0.28947686
-0.00076484467
0.28947686
-0.0008678718
0.28947686
-0.00097089894
0.28947686