/*--------------------------------*- C++ -*----------------------------------*\
| =========                 |                                                 |
| \\      /  F ield         | OpenFOAM: The Open Source CFD Toolbox           |
|  \\    /   O peration     | Version:  2206                                  |
|   \\  /    A nd           | Website:  www.openfoam.com                      |
|    \\/     M anipulation  |                                                 |
\*---------------------------------------------------------------------------*/
FoamFile
{
    version     2.0;
    format      ascii;
    arch        "LSB;label=32;scalar=64";
    class       volVectorField;
    location    "0.02";
    object      U;
}
// * * * * * * * * * * * * * * * * * * * * * * * * * * * * * * * * * * * * * //

dimensions      [0 1 -1 0 0 0 0];

internalField   nonuniform List<vector> 
1396
(
(0.85671779 0.043699275 0)
(0.85671779 0.043699275 0)
(0.85671779 0.043699275 1.3760633e-21)
(0.85671779 0.043699275 -1.3761122e-21)
(0.85671779 0.043699275 0)
(0.85671779 0.043699275 -6.8810497e-22)
(0.85671779 0.043699275 6.881294e-22)
(0.85671779 0.043699275 0)
(0.85671779 0.043699275 6.8817828e-22)
(0.85671779 0.043699275 -6.8820272e-22)
(0.85671779 0.043699275 0)
(0.85671779 0.043699275 -6.8825161e-22)
(0.85671779 0.043699275 1.3765521e-21)
(0.85671779 0.043699275 -1.3766019e-21)
(0.85671779 0.043699275 0)
(0.85671779 0.043699275 1.4225693e-21)
(0.85671779 0.043699275 -1.4226215e-21)
(0.85671779 0.043699275 0)
(0.85671779 0.043699275 -7.1136298e-22)
(0.85671779 0.043699275 7.113891e-22)
(0.85671779 0.043699275 7.1141521e-22)
(0.85671779 0.043699275 -7.1144133e-22)
(0.85671779 0.043699275 0)
(0.85671779 0.043699275 -7.1149358e-22)
(0.85671779 0.043699275 7.115197e-22)
(0.85671779 0.043699275 -7.1154583e-22)
(0.85671779 0.043699275 -2.665472e-34)
(0.85671779 0.043699275 7.115986e-22)
(0.85671779 0.043699275 -6.1984653e-34)
(0.85671779 0.043699275 -1.4723845e-21)
(0.85671779 0.043699275 0)
(0.85671779 0.043699275 0)
(0.85671779 0.043699275 7.3627615e-22)
(0.85671779 0.043699275 -7.3630413e-22)
(0.85671779 0.043699275 0)
(0.85671779 0.043699275 0)
(0.85671779 0.043699275 -7.3638807e-22)
(0.85671779 0.043699275 7.3641606e-22)
(0.85671779 0.043699275 -7.3644405e-22)
(0.85671779 0.043699275 1.1430722e-34)
(0.85671779 0.043699275 7.3650002e-22)
(0.85671779 0.043699275 0)
(0.85671779 0.043699275 0)
(0.85671779 0.043699275 2.422517e-21)
(0.85671779 0.043699275 -2.422498e-21)
(0.85671779 0.043699275 0)
(0.85671779 0.043699275 0)
(0.85671779 0.043699275 0)
(0.85671779 0.043699275 0)
(0.85671779 0.043699275 1.2112017e-21)
(0.85671779 0.043699275 -1.2111922e-21)
(0.85671779 0.043699275 0)
(0.85671779 0.043699275 3.0279333e-22)
(0.85671779 0.043699275 -3.0279096e-22)
(0.85671779 0.043699275 3.027886e-22)
(0.85671779 0.043699275 -3.027864e-22)
(0.85671779 0.043699275 -6.0742674e-35)
(0.85671779 0.043699275 -1.3858715e-22)
(0.85671779 0.043699275 1.3912101e-22)
(0.85671779 0.043699275 0)
(0.85671779 0.043699275 -7.235092e-23)
(0.85671779 0.043699275 7.2641973e-23)
(0.85671779 0.043699275 -3.0149824e-22)
(0.85671779 0.043699275 1.5138101e-22)
(0.85671779 0.043699275 -1.5201821e-22)
(0.85671779 0.043699275 1.5801223e-22)
(0.85671779 0.043699275 0)
(0.85671779 0.043699275 1.5940712e-22)
(0.85671779 0.043699275 1.6525103e-22)
(0.85671779 0.043699275 1.6601064e-22)
(0.85671779 0.043699275 8.3388631e-23)
(0.85671779 0.043699275 -8.3775504e-23)
(0.85671779 0.043699275 8.7009699e-23)
(0.85671779 0.043699275 0)
(0.85671779 0.043699275 0)
(0.85671779 0.043699275 0)
(0.85671779 0.043699275 -9.1885208e-23)
(0.85671779 0.043699275 9.2355155e-23)
(0.85671779 0.043699275 0)
(0.85671779 0.043699275 0)
(0.85671779 0.043699275 -3.8935816e-22)
(0.85671779 0.043699275 -2.936013e-22)
(0.85671779 0.043699275 9.8400406e-23)
(0.85671779 0.043699275 0)
(0.85671779 0.043699275 -1.0289264e-22)
(0.85671779 0.043699275 6.2089371e-22)
(0.85671779 0.043699275 -2.0815746e-22)
(0.85671779 0.043699275 2.0936418e-22)
(0.85671779 0.043699275 -2.1058497e-22)
(0.85671779 0.043699275 -4.3912417e-22)
(0.85671779 0.043699275 0)
(0.85671779 0.043699275 1.111323e-22)
(0.85671779 0.043699275 -2.2364098e-22)
(0.85671779 0.043699275 1.1251725e-22)
(0.85671779 0.043699275 -3.5297385e-22)
(0.85671779 0.043699275 4.737184e-22)
(0.85671779 0.043699275 2.384229e-22)
(0.85671779 0.043699275 0)
(0.85671779 0.043699275 1.2080652e-22)
(0.85671779 0.043699275 -8.8108336e-22)
(0.85671779 0.043699275 5.0701031e-22)
(0.85671779 0.043699275 2.5529718e-22)
(0.85671779 0.043699275 -3.8567209e-22)
(0.85671779 0.043699275 -1.2947916e-22)
(0.85671779 0.043699275 1.3041429e-22)
(0.85671779 0.043699275 0)
(0.85671779 0.043699275 0)
(0.85671779 0.043699275 1.3842402e-22)
(0.85671779 0.043699275 0)
(0.85671779 0.043699275 0)
(0.85671779 0.043699275 -2.8336463e-22)
(0.85671779 0.043699275 -5.8992803e-22)
(0.85671779 0.043699275 1.3382682e-21)
(0.85671779 0.043699275 -1.1994487e-21)
(0.85671779 0.043699275 4.5355914e-22)
(0.85671779 0.043699275 0)
(0.85671779 0.043699275 1.537611e-22)
(0.85671779 0.043699275 1.5508164e-22)
(0.85671779 0.043699275 1.0633176e-22)
(0.85671779 0.043699275 1.0062014e-35)
(0.85671779 0.043699275 2.7575365e-23)
(0.85671779 0.043699275 8.4299663e-23)
(0.85671779 0.043699275 7.3067795e-22)
(0.85671779 0.043699275 -5.1022765e-22)
(0.85671779 0.043699275 1.8849662e-22)
(0.85671779 0.043699275 2.394398e-22)
(0.85671779 0.043699275 9.7353866e-23)
(0.85671779 0.043699275 -1.9796936e-22)
(0.85671779 0.043699275 -5.0335528e-23)
(0.85671779 0.043699275 1.9329762e-37)
(0.85671779 0.043699275 5.2111139e-23)
(0.85671779 0.043699275 -5.4535604e-36)
(0.85671779 0.043699275 -1.0803321e-22)
(0.85671779 0.043699275 1.1004512e-22)
(0.85671779 0.043699275 -8.4100051e-23)
(0.85671779 0.043699275 -8.5726838e-23)
(0.85671779 0.043699275 3.7034904e-22)
(0.85671779 0.043699275 -4.2327493e-22)
(0.85671779 0.043699275 2.3895649e-23)
(0.85671779 0.043699275 0)
(0.85671779 0.043699275 1.4816729e-22)
(0.85671779 0.043699275 -1.5068623e-22)
(0.85671779 0.043699275 2.5548716e-23)
(0.85671779 0.043699275 -7.7995045e-23)
(0.85671779 0.043699275 0)
(0.85671779 0.043699275 1.8862776e-22)
(0.85671779 0.043699275 -1.0978998e-22)
(0.85671779 0.043699275 1.3983562e-22)
(0.85671779 0.043699275 -8.552042e-23)
(0.85671779 0.043699275 5.8135445e-23)
(0.85671779 0.043699275 3.7549843e-22)
(0.85671779 0.043699275 -5.723403e-22)
(0.85671779 0.043699275 2.4238801e-23)
(0.85671779 0.043699275 -1.0556345e-34)
(0.85671779 0.043699275 2.0048964e-22)
(0.85671779 0.043699275 0)
(0.85671779 0.043699275 2.5941378e-23)
(0.85671779 0.043699275 2.6405062e-23)
(0.85671779 0.043699275 0)
(0.85671779 0.043699275 8.2152012e-23)
(0.85671779 0.043699275 -1.6740725e-22)
(0.85671779 0.043699275 2.8438326e-23)
(0.85671779 0.043699275 -2.899653e-23)
(0.85671779 0.043699275 -9.7526353e-36)
(0.85671779 0.043699275 -6.7035112e-23)
(0.85671779 0.043699275 1.6125692e-22)
(0.85671779 0.043699275 -1.2122355e-22)
(0.85671779 0.043699275 -2.2951081e-22)
(0.85671779 0.043699275 9.4228567e-36)
(0.85671779 0.043699275 2.0345671e-22)
(0.85671779 0.043699275 0)
(0.85671779 0.043699275 -1.3627518e-23)
(0.85671779 0.043699275 4.2344798e-22)
(0.85671779 0.043699275 -4.244476e-22)
(0.85671779 0.043699275 4.2545195e-22)
(0.85671779 0.043699275 2.227677e-34)
(0.85671779 0.043699275 -4.4126448e-22)
(0.85671779 0.043699275 -4.2849356e-22)
(0.85671779 0.043699275 -6.2310353e-23)
(0.85671779 0.043699275 1.6655846e-22)
(0.85671779 0.043699275 -6.9565837e-24)
(0.85671779 0.043699275 -3.4169226e-22)
(0.85671779 0.043699275 2.3067395e-22)
(0.85671779 0.043699275 -7.0070091e-24)
(0.85671779 0.043699275 7.0239804e-24)
(0.85671779 0.043699275 4.4358516e-22)
(0.85671779 0.043699275 -4.5878112e-22)
(0.85671779 0.043699275 0)
(0.85671779 0.043699275 -7.092696e-24)
(0.85671779 0.043699275 0)
(0.85671779 0.043699275 -4.6329143e-22)
(0.85671779 0.043699275 8.9099826e-35)
(0.85671779 0.043699275 7.1581453e-24)
(0.85671779 0.043699275 -3.5879261e-24)
(0.85671779 0.043699275 7.1936523e-24)
(0.85671779 0.043699275 2.3437507e-22)
(0.85671779 0.043699275 -4.6991872e-22)
(0.85671779 0.043699275 2.4279415e-22)
(0.85671779 0.043699275 -1.0898617e-23)
(0.85671779 0.043699275 -4.5889165e-22)
(0.85671779 0.043699275 9.4200129e-22)
(0.85671779 0.043699275 -4.6486886e-22)
(0.85671779 0.043699275 -4.6604536e-22)
(0.85671779 0.043699275 4.7090676e-22)
(0.85671779 0.043699275 1.1064951e-23)
(0.85671779 0.043699275 3.6977223e-24)
(0.85671779 0.043699275 -5.9275191e-23)
(0.85671779 0.043699275 1.8199512e-22)
(0.85671779 0.043699275 -1.1915918e-22)
(0.85671779 0.043699275 2.4266527e-22)
(0.85671779 0.043699275 -4.7909744e-22)
(0.85671779 0.043699275 2.3641604e-22)
(0.85671779 0.043699275 3.7623726e-24)
(0.85671779 0.043699275 -4.8283652e-22)
(0.85671779 0.043699275 4.8409589e-22)
(0.85671779 0.043699275 -3.7918894e-24)
(0.85671779 0.043699275 3.8018315e-24)
(0.85671779 0.043699275 -4.8791371e-22)
(0.85671779 0.043699275 -3.821873e-24)
(0.85671779 0.043699275 -3.8319729e-24)
(0.85671779 0.043699275 -2.567239e-22)
(0.85671779 0.043699275 -2.7165717e-22)
(0.85671779 0.043699275 -2.8843505e-22)
(0.85671779 0.043699275 -3.0742177e-22)
(0.85671779 0.043699275 0)
(0.85671779 0.043699275 2.7167937e-22)
(0.85671779 0.043699275 0)
(0.85671779 0.043699275 3.0745008e-22)
(0.85671779 0.043699275 0)
(0.85671779 0.043699275 1.3585111e-22)
(0.85671779 0.043699275 0)
(0.85671779 0.043699275 -1.5373968e-22)
(0.85671779 0.043699275 0)
(0.85671779 0.043699275 -1.3586254e-22)
(0.85671779 0.043699275 0)
(0.85671779 0.043699275 -7.6877159e-23)
(0.85671779 0.043699275 0)
(0.85671779 0.043699275 0)
(0.85671779 0.043699275 0)
(0.85671779 0.043699275 -1.1532671e-22)
(0.85671779 0.043699275 0)
(0.85671779 0.043699275 0)
(0.85671779 0.043699275 0)
(0.85671779 0.043699275 -1.153377e-22)
(0.85671779 0.043699275 0)
(0.85671779 0.043699275 -1.3589684e-22)
(0.85671779 0.043699275 0)
(0.85671779 0.043699275 3.0759648e-22)
(0.85671779 0.043699275 0)
(0.85671779 0.043699275 1.3590828e-22)
(0.85671779 0.043699275 0)
(0.85671779 0.043699275 -1.5381289e-22)
(0.85671779 0.043699275 0)
(0.85671779 0.043699275 0)
(0.85671779 0.043699275 0)
(0.85671779 0.043699275 0)
(0.85671779 0.043699275 0)
(0.85671779 0.043699275 0)
(0.85671779 0.043699275 0)
(0.85671779 0.043699275 6.1536878e-22)
(0.85671779 0.043699275 0)
(0.85671779 0.043699275 0)
(0.85671779 0.043699275 0)
(0.85671779 0.043699275 -1.2308548e-21)
(0.85671779 0.043699275 0)
(0.85671779 0.043699275 0)
(0.85671779 0.043699275 0)
(0.85671779 0.043699275 1.2309721e-21)
(0.85671779 0.043699275 0)
(0.85671779 0.043699275 0)
(0.85671779 0.043699275 0)
(0.85671779 0.043699275 -1.2310894e-21)
(0.85671779 0.043699275 5.1397787e-22)
(0.85671779 0.043699275 0)
(0.85671779 0.043699275 5.7753926e-22)
(0.85671779 0.043699275 1.2312076e-21)
(0.85671779 0.043699275 3.3189143e-23)
(0.85671779 0.043699275 -6.6751007e-23)
(0.85671779 0.043699275 6.7127939e-23)
(0.85671779 0.043699275 -3.3754575e-23)
(0.85671779 0.043699275 3.3947357e-23)
(0.85671779 0.043699275 0)
(0.85671779 0.043699275 0)
(0.85671779 0.043699275 0)
(0.85671779 0.043699275 -3.4741021e-23)
(0.85671779 0.043699275 3.4945271e-23)
(0.85671779 0.043699275 2.8121549e-22)
(0.85671779 0.043699275 -3.1824953e-22)
(0.85671779 0.043699275 0)
(0.85671779 0.043699275 0)
(0.85671779 0.043699275 3.2642168e-23)
(0.85671779 0.043699275 0)
(0.85671779 0.043699275 -1.3201869e-22)
(0.85671779 0.043699275 1.4724121e-35)
(0.85671779 0.043699275 1.3350128e-22)
(0.85671779 0.043699275 0)
(0.85671779 0.043699275 -1.3501754e-22)
(0.85671779 0.043699275 1.3578866e-22)
(0.85671779 0.043699275 0)
(0.85671779 0.043699275 0)
(0.85671779 0.043699275 0)
(0.85671779 0.043699275 0)
(0.85671779 0.043699275 0)
(0.85671779 0.043699275 2.8121385e-22)
(0.85671779 0.043699275 0)
(0.85671779 0.043699275 0)
(0.85671779 0.043699275 -1.2985485e-22)
(0.85671779 0.043699275 1.3872847e-22)
(0.85671779 0.043699275 -8.2055605e-24)
(0.85671779 0.043699275 8.2511231e-24)
(0.85671779 0.043699275 -8.2971947e-24)
(0.85671779 0.043699275 0)
(0.85671779 0.043699275 8.3908988e-24)
(0.85671779 0.043699275 -2.7847212e-22)
(0.85671779 0.043699275 8.4867434e-24)
(0.85671779 0.043699275 2.7313573e-22)
(0.85671779 0.043699275 -8.5848032e-24)
(0.85671779 0.043699275 0)
(0.85671779 0.043699275 3.1600579e-23)
(0.85671779 0.043699275 0)
(0.85671779 0.043699275 0)
(0.85671779 0.043699275 -8.0281899e-24)
(0.85671779 0.043699275 8.0717991e-24)
(0.85671779 0.043699275 -1.3797004e-22)
(0.85671779 0.043699275 2.6929498e-22)
(0.85671779 0.043699275 -1.3128825e-22)
(0.85671779 0.043699275 -8.2510781e-24)
(0.85671779 0.043699275 8.2971493e-24)
(0.85671779 0.043699275 -8.3437378e-24)
(0.85671779 0.043699275 0)
(0.85671779 0.043699275 2.7847056e-22)
(0.85671779 0.043699275 -2.3348781e-34)
(0.85671779 0.043699275 -1.2995732e-21)
(0.85671779 0.043699275 0)
(0.85671779 0.043699275 0)
(0.85671779 0.043699275 1.4681361e-21)
(0.85671779 0.043699275 0)
(0.85671779 0.043699275 0)
(0.85671779 0.043699275 0)
(0.85671779 0.043699275 -1.4681358e-21)
(0.85671779 0.043699275 0)
(0.85671779 0.043699275 0)
(0.85671779 0.043699275 -6.3065492e-24)
(0.85671779 0.043699275 9.2739603e-37)
(0.85671779 0.043699275 0)
(0.85671779 0.043699275 6.299904e-24)
(0.85671779 0.043699275 -1.2595383e-23)
(0.85671779 0.043699275 -1.288685e-20)
(0.85671779 0.043699275 3.6437156e-33)
(0.85671779 0.043699275 5.2521094e-33)
(0.85671779 0.043699275 -2.6448418e-20)
(0.85671779 0.043699275 1.3212995e-20)
(0.85671779 0.043699275 1.3214693e-20)
(0.85671779 0.043699275 -1.3222842e-20)
(0.85671779 0.043699275 1.3205193e-20)
(0.85671779 0.043699275 -1.3200446e-20)
(0.85671779 0.043699275 1.3195705e-20)
(0.85671779 0.043699275 -1.3184526e-20)
(0.85671779 0.043699275 -1.3179792e-20)
(0.85671779 0.043699275 1.31815e-20)
(0.85671779 0.043699275 7.0224229e-36)
(0.85671779 0.043699275 0)
(0.85671779 0.043699275 1.3527736e-20)
(0.85671779 0.043699275 -1.3526056e-20)
(0.85671779 0.043699275 -6.6004776e-24)
(0.85671779 0.043699275 1.3522703e-20)
(0.85671779 0.043699275 -1.3507836e-20)
(0.85671779 0.043699275 1.3509464e-20)
(0.85671779 0.043699275 -1.3491319e-20)
(0.85671779 0.043699275 0)
(0.85671779 0.043699275 0)
(0.85671779 0.043699275 0)
(0.85671779 0.043699275 -1.3484679e-20)
(0.85671779 0.043699275 1.3473155e-20)
(0.85671779 0.043699275 -1.346164e-20)
(0.85671779 0.043699275 1.3463277e-20)
(0.85671779 0.043699275 3.3777082e-24)
(0.85671779 0.043699275 3.3764367e-24)
(0.85671779 0.043699275 -1.3824677e-20)
(0.85671779 0.043699275 -3.3738957e-24)
(0.85671779 0.043699275 0)
(0.85671779 0.043699275 1.3809087e-20)
(0.85671779 0.043699275 2.2865504e-33)
(0.85671779 0.043699275 -1.3795342e-20)
(0.85671779 0.043699275 0)
(0.85671779 0.043699275 3.3662968e-24)
(0.85671779 0.043699275 -3.365034e-24)
(0.85671779 0.043699275 1.3781372e-20)
(0.85671779 0.043699275 -1.3772845e-20)
(0.85671779 0.043699275 -1.376768e-20)
(0.85671779 0.043699275 -1.4163656e-20)
(0.85671779 0.043699275 1.4147833e-20)
(0.85671779 0.043699275 3.4535734e-24)
(0.85671779 0.043699275 3.452244e-24)
(0.85671779 0.043699275 -3.4509154e-24)
(0.85671779 0.043699275 3.4495884e-24)
(0.85671779 0.043699275 0)
(0.85671779 0.043699275 -3.4469362e-24)
(0.85671779 0.043699275 3.4456123e-24)
(0.85671779 0.043699275 -1.411125e-20)
(0.85671779 0.043699275 1.4105834e-20)
(0.85671779 0.043699275 -3.441645e-24)
(0.85671779 0.043699275 3.440325e-24)
(0.85671779 0.043699275 0)
(0.85671779 0.043699275 1.4493704e-20)
(0.85671779 0.043699275 -2.8975969e-20)
(0.85671779 0.043699275 1.4478737e-20)
(0.85671779 0.043699275 -7.0686353e-24)
(0.85671779 0.043699275 3.5329249e-24)
(0.85671779 0.043699275 -3.531534e-24)
(0.85671779 0.043699275 -1.4462999e-20)
(0.85671779 0.043699275 2.890403e-20)
(0.85671779 0.043699275 -2.8899717e-20)
(0.85671779 0.043699275 1.4438888e-20)
(0.85671779 0.043699275 0)
(0.85671779 0.043699275 -3.5232095e-24)
(0.85671779 0.043699275 -3.5218259e-24)
(0.85671779 0.043699275 -3.5204434e-24)
(0.85671779 0.043699275 3.6247793e-24)
(0.85671779 0.043699275 3.6233142e-24)
(0.85671779 0.043699275 -1.48351e-20)
(0.85671779 0.043699275 1.4832733e-20)
(0.85671779 0.043699275 -1.4823127e-20)
(0.85671779 0.043699275 0)
(0.85671779 0.043699275 3.616009e-24)
(0.85671779 0.043699275 3.6145519e-24)
(0.85671779 0.043699275 0)
(0.85671779 0.043699275 1.8058203e-24)
(0.85671779 0.043699275 0)
(0.85671779 0.043699275 1.4783178e-20)
(0.85671779 0.043699275 -1.4775428e-20)
(0.85671779 0.043699275 3.605832e-24)
(0.85671779 0.043699275 1.5218151e-20)
(0.85671779 0.043699275 -1.5213705e-20)
(0.85671779 0.043699275 0)
(0.85671779 0.043699275 -1.8553783e-24)
(0.85671779 0.043699275 0)
(0.85671779 0.043699275 0)
(0.85671779 0.043699275 1.5180414e-20)
(0.85671779 0.043699275 -1.5172291e-20)
(0.85671779 0.043699275 -1.5167879e-20)
(0.85671779 0.043699275 3.7015666e-24)
(0.85671779 0.043699275 1.5155361e-20)
(0.85671779 0.043699275 3.6985134e-24)
(0.85671779 0.043699275 -1.8484946e-24)
(0.85671779 0.043699275 1.8477327e-24)
(0.85671779 0.043699275 -3.1217413e-20)
(0.85671779 0.043699275 3.1205101e-20)
(0.85671779 0.043699275 -3.2099968e-33)
(0.85671779 0.043699275 -1.5587407e-20)
(0.85671779 0.043699275 0)
(0.85671779 0.043699275 -9.5063096e-25)
(0.85671779 0.043699275 0)
(0.85671779 0.043699275 -9.4982536e-25)
(0.85671779 0.043699275 0)
(0.85671779 0.043699275 -2.847064e-24)
(0.85671779 0.043699275 -1.5542187e-20)
(0.85671779 0.043699275 1.5533717e-20)
(0.85671779 0.043699275 9.4781776e-25)
(0.85671779 0.043699275 -1.8948342e-24)
(0.85671779 0.043699275 9.7771195e-25)
(0.85671779 0.043699275 0)
(0.85671779 0.043699275 0)
(0.85671779 0.043699275 9.7643435e-25)
(0.85671779 0.043699275 0)
(0.85671779 0.043699275 9.7558458e-25)
(0.85671779 0.043699275 0)
(0.85671779 0.043699275 1.5969103e-20)
(0.85671779 0.043699275 -1.5963138e-20)
(0.85671779 0.043699275 1.5957178e-20)
(0.85671779 0.043699275 -1.5949276e-20)
(0.85671779 0.043699275 0)
(0.85671779 0.043699275 9.7262188e-25)
(0.85671779 0.043699275 0)
(0.85671779 0.043699275 0)
(0.85671779 0.043699275 -1.6444252e-20)
(0.85671779 0.043699275 1.6436894e-20)
(0.85671779 0.043699275 -1.6429542e-20)
(0.85671779 0.043699275 1.5679779e-33)
(0.85671779 0.043699275 1.641486e-20)
(0.85671779 0.043699275 0)
(0.85671779 0.043699275 0)
(0.85671779 0.043699275 0)
(0.85671779 0.043699275 0)
(0.85671779 0.043699275 1.6378265e-20)
(0.85671779 0.043699275 1.1517764e-32)
(0.85671779 0.043699275 -1.6363671e-20)
(0.85671779 0.043699275 -1.6356385e-20)
(0.85671779 0.043699275 -2.2082277e-32)
(0.85671779 0.043699275 1.4287603e-20)
(0.85671779 0.043699275 -1.4283371e-20)
(0.85671779 0.043699275 1.4279143e-20)
(0.85671779 0.043699275 -1.4274917e-20)
(0.85671779 0.043699275 -2.5920221e-33)
(0.85671779 0.043699275 2.2966502e-33)
(0.85671779 0.043699275 1.4262255e-20)
(0.85671779 0.043699275 0)
(0.85671779 0.043699275 0)
(0.85671779 0.043699275 -1.4249615e-20)
(0.85671779 0.043699275 -2.9163928e-33)
(0.85671779 0.043699275 7.2793434e-33)
(0.85671779 0.043699275 2.8473996e-20)
(0.85671779 0.043699275 -1.3873312e-20)
(0.85671779 0.043699275 2.7736953e-20)
(0.85671779 0.043699275 -2.7728981e-20)
(0.85671779 0.043699275 -1.0294741e-32)
(0.85671779 0.043699275 1.3855678e-20)
(0.85671779 0.043699275 0)
(0.85671779 0.043699275 0)
(0.85671779 0.043699275 -8.4500694e-25)
(0.85671779 0.043699275 1.3840621e-20)
(0.85671779 0.043699275 -2.7673302e-20)
(0.85671779 0.043699275 1.3832682e-20)
(0.85671779 0.043699275 -8.4403794e-25)
(0.85671779 0.043699275 0)
(0.85671779 0.043699275 0)
(0.85671779 0.043699275 -1.3476182e-20)
(0.85671779 0.043699275 2.694648e-20)
(0.85671779 0.043699275 -1.3469477e-20)
(0.85671779 0.043699275 0)
(0.85671779 0.043699275 1.3462779e-20)
(0.85671779 0.043699275 1.0211095e-32)
(0.85671779 0.043699275 -1.345445e-20)
(0.85671779 0.043699275 -1.3449055e-20)
(0.85671779 0.043699275 -8.9574673e-36)
(0.85671779 0.043699275 1.3443201e-20)
(0.85671779 0.043699275 -1.3439453e-20)
(0.85671779 0.043699275 2.6872245e-20)
(0.85671779 0.043699275 -2.6863119e-20)
(0.85671779 0.043699275 1.0644549e-33)
(0.85671779 0.043699275 -1.3101866e-20)
(0.85671779 0.043699275 -2.3270108e-33)
(0.85671779 0.043699275 1.309635e-20)
(0.85671779 0.043699275 1.5982416e-24)
(0.85671779 0.043699275 0)
(0.85671779 0.043699275 0)
(0.85671779 0.043699275 -1.3080546e-20)
(0.85671779 0.043699275 1.3077797e-20)
(0.85671779 0.043699275 -1.307505e-20)
(0.85671779 0.043699275 1.3073103e-20)
(0.85671779 0.043699275 -1.3067966e-20)
(0.85671779 0.043699275 1.5947787e-24)
(0.85671779 0.043699275 1.3060092e-20)
(0.85671779 0.043699275 1.5939152e-24)
(0.85671779 0.043699275 2.9755423e-37)
(0.85671779 0.043699275 0)
(0.85671779 0.043699275 0)
(0.85671779 0.043699275 -3.1103446e-24)
(0.85671779 0.043699275 -1.2736609e-20)
(0.85671779 0.043699275 -1.5543512e-24)
(0.85671779 0.043699275 1.2729885e-20)
(0.85671779 0.043699275 -1.2726527e-20)
(0.85671779 0.043699275 1.2724722e-20)
(0.85671779 0.043699275 -1.2721367e-20)
(0.85671779 0.043699275 1.2714911e-20)
(0.85671779 0.043699275 3.2992724e-36)
(0.85671779 0.043699275 0)
(0.85671779 0.043699275 -1.5510756e-24)
(0.85671779 0.043699275 -1.2416759e-20)
(0.85671779 0.043699275 1.241205e-20)
(0.85671779 0.043699275 0)
(0.85671779 0.043699275 1.240718e-20)
(0.85671779 0.043699275 -1.2399449e-20)
(0.85671779 0.043699275 4.5407543e-24)
(0.85671779 0.043699275 -1.5131959e-24)
(0.85671779 0.043699275 -1.2395942e-20)
(0.85671779 0.043699275 1.2388221e-20)
(0.85671779 0.043699275 -1.2386551e-20)
(0.85671779 0.043699275 1.2384884e-20)
(0.85671779 0.043699275 -1.5112541e-24)
(0.85671779 0.043699275 3.0217326e-24)
(0.85671779 0.043699275 1.237082e-20)
(0.85671779 0.043699275 2.9535035e-24)
(0.85671779 0.043699275 0)
(0.85671779 0.043699275 2.9520229e-24)
(0.85671779 0.043699275 2.951283e-24)
(0.85671779 0.043699275 -2.9505436e-24)
(0.85671779 0.043699275 -1.2088297e-20)
(0.85671779 0.043699275 1.2082323e-20)
(0.85671779 0.043699275 -1.2073401e-20)
(0.85671779 0.043699275 1.2070379e-20)
(0.85671779 0.043699275 2.946852e-24)
(0.85671779 0.043699275 -1.2067286e-20)
(0.85671779 0.043699275 1.2067214e-20)
(0.85671779 0.043699275 -5.8892826e-24)
(0.85671779 0.043699275 5.8878106e-24)
(0.85671779 0.043699275 1.179571e-20)
(0.85671779 0.043699275 0)
(0.85671779 0.043699275 -2.8784043e-24)
(0.85671779 0.043699275 -2.8777007e-24)
(0.85671779 0.043699275 -1.1784183e-20)
(0.85671779 0.043699275 1.178418e-20)
(0.85671779 0.043699275 1.1778428e-20)
(0.85671779 0.043699275 -2.3551104e-20)
(0.85671779 0.043699275 1.1775553e-20)
(0.85671779 0.043699275 -1.1772679e-20)
(0.85671779 0.043699275 1.1766935e-20)
(0.85671779 0.043699275 -2.8720861e-24)
(0.85671779 0.043699275 1.1764068e-20)
(0.85671779 0.043699275 -1.17612e-20)
(0.85671779 0.043699275 -2.8097083e-24)
(0.85671779 0.043699275 0)
(0.85671779 0.043699275 0)
(0.85671779 0.043699275 0)
(0.85671779 0.043699275 -1.1497593e-20)
(0.85671779 0.043699275 2.2989702e-20)
(0.85671779 0.043699275 -1.1494919e-20)
(0.85671779 0.043699275 0)
(0.85671779 0.043699275 -1.1483836e-20)
(0.85671779 0.043699275 1.1483905e-20)
(0.85671779 0.043699275 2.8030205e-24)
(0.85671779 0.043699275 0)
(0.85671779 0.043699275 1.147571e-20)
(0.85671779 0.043699275 -1.1472978e-20)
(0.85671779 0.043699275 -2.7429364e-24)
(0.85671779 0.043699275 -1.1232451e-20)
(0.85671779 0.043699275 1.1227094e-20)
(0.85671779 0.043699275 -2.7410209e-24)
(0.85671779 0.043699275 -1.122735e-20)
(0.85671779 0.043699275 1.1224737e-20)
(0.85671779 0.043699275 2.7391083e-24)
(0.85671779 0.043699275 -2.7384714e-24)
(0.85671779 0.043699275 -5.4756697e-24)
(0.85671779 0.043699275 -2.7371984e-24)
(0.85671779 0.043699275 -1.1214432e-20)
(0.85671779 0.043699275 1.1209091e-20)
(0.85671779 0.043699275 -2.7352913e-24)
(0.85671779 0.043699275 0)
(0.85671779 0.043699275 1.0976945e-20)
(0.85671779 0.043699275 0)
(0.85671779 0.043699275 2.6780458e-24)
(0.85671779 0.043699275 -2.6774369e-24)
(0.85671779 0.043699275 -1.0961612e-20)
(0.85671779 0.043699275 1.0953768e-20)
(0.85671779 0.043699275 -2.675612e-24)
(0.85671779 0.043699275 -1.0954142e-20)
(0.85671779 0.043699275 -2.6743968e-24)
(0.85671779 0.043699275 2.6737896e-24)
(0.85671779 0.043699275 1.0946683e-20)
(0.85671779 0.043699275 -2.6725758e-24)
(0.85671779 0.043699275 2.6719696e-24)
(0.85671779 0.043699275 -1.0947247e-20)
(0.85671779 0.043699275 1.0713389e-20)
(0.85671779 0.043699275 -1.0705781e-20)
(0.85671779 0.043699275 -5.2288244e-24)
(0.85671779 0.043699275 1.0455328e-23)
(0.85671779 0.043699275 -1.0698654e-20)
(0.85671779 0.043699275 1.0701505e-20)
(0.85671779 0.043699275 5.2241853e-24)
(0.85671779 0.043699275 -1.0701982e-20)
(0.85671779 0.043699275 1.0443738e-23)
(0.85671779 0.043699275 -4.7130451e-22)
(0.85671779 0.043699275 -1.9638642e-24)
(0.85671779 0.043699275 9.1993998e-25)
(0.85671779 0.043699275 -9.8127596e-25)
(0.85671779 0.043699275 2.1027505e-24)
(0.85671779 0.043699275 -5.8198184e-22)
(0.85671779 0.043699275 0)
(0.85671779 0.043699275 -1.0061168e-21)
(0.85671779 0.043699275 4.2024923e-24)
(0.85671779 0.043699275 1.7378121e-21)
(0.85671779 0.043699275 1.2525678e-21)
(0.85671779 0.043699275 -6.845123e-22)
(0.85671779 0.043699275 9.3992099e-22)
(0.85671779 0.043699275 1.0025055e-21)
(0.85671779 0.043699275 1.0771686e-21)
(0.85671779 0.043699275 -1.1576495e-21)
(0.85671779 0.043699275 -3.5762553e-33)
(0.85671779 0.043699275 2.7355587e-21)
(0.85671779 0.043699275 1.5101821e-21)
(0.85671779 0.043699275 -9.411697e-22)
(0.85671779 0.043699275 9.793128e-25)
(0.85671779 0.043699275 2.0982438e-24)
(0.85671779 0.043699275 7.0383492e-37)
(0.85671779 0.043699275 -2.5083024e-21)
(0.85671779 0.043699275 -1.3665364e-21)
(0.85671779 0.043699275 0)
(0.85671779 0.043699275 0)
(0.85671779 0.043699275 -9.405816e-22)
(0.85671779 0.043699275 2.9359805e-24)
(0.85671779 0.043699275 -1.0756306e-21)
(0.85671779 0.043699275 -1.1536123e-21)
(0.85671779 0.043699275 2.501324e-21)
(0.85671779 0.043699275 0)
(0.85671779 0.043699275 5.8644616e-24)
(0.85671779 0.043699275 -1.673917e-21)
(0.85671779 0.043699275 9.3999422e-22)
(0.85671779 0.043699275 -1.0024586e-21)
(0.85671779 0.043699275 2.0952501e-24)
(0.85671779 0.043699275 2.3099641e-21)
(0.85671779 0.043699275 -7.3291596e-24)
(0.85671779 0.043699275 5.3283486e-24)
(0.85671779 0.043699275 1.4998048e-21)
(0.85671779 0.043699275 -5.7219776e-33)
(0.85671779 0.043699275 0)
(0.85671779 0.043699275 0)
(0.85671779 0.043699275 9.9885935e-22)
(0.85671779 0.043699275 1.074097e-21)
(0.85671779 0.043699275 -1.1518415e-21)
(0.85671779 0.043699275 -2.4410227e-24)
(0.85671779 0.043699275 0)
(0.85671779 0.043699275 -1.4924577e-21)
(0.85671779 0.043699275 3.3209294e-21)
(0.85671779 0.043699275 0)
(0.85671779 0.043699275 8.3403166e-24)
(0.85671779 0.043699275 -8.5147545e-24)
(0.85671779 0.043699275 -7.4514908e-34)
(0.85671779 0.043699275 4.3315675e-21)
(0.85671779 0.043699275 -4.3303545e-21)
(0.85671779 0.043699275 4.3291467e-21)
(0.85671779 0.043699275 0)
(0.85671779 0.043699275 6.5793492e-33)
(0.85671779 0.043699275 3.6085107e-21)
(0.85671779 0.043699275 0)
(0.85671779 0.043699275 0)
(0.85671779 0.043699275 0)
(0.85671779 0.043699275 -1.4046084e-23)
(0.85671779 0.043699275 -1.4020092e-23)
(0.85671779 0.043699275 1.7912571e-21)
(0.85671779 0.043699275 3.108797e-21)
(0.85671779 0.043699275 2.424861e-23)
(0.85671779 0.043699275 -6.1977262e-21)
(0.85671779 0.043699275 -1.2085625e-23)
(0.85671779 0.043699275 3.0889925e-21)
(0.85671779 0.043699275 1.2047191e-23)
(0.85671779 0.043699275 1.2028065e-23)
(0.85671779 0.043699275 1.525143e-21)
(0.85671779 0.043699275 -1.5347194e-21)
(0.85671779 0.043699275 -1.062026e-23)
(0.85671779 0.043699275 -2.1210789e-23)
(0.85671779 0.043699275 -1.059057e-23)
(0.85671779 0.043699275 -2.6968256e-21)
(0.85671779 0.043699275 2.6930665e-21)
(0.85671779 0.043699275 -1.0546344e-23)
(0.85671779 0.043699275 1.0531684e-23)
(0.85671779 0.043699275 2.103413e-23)
(0.85671779 0.043699275 0)
(0.85671779 0.043699275 -1.0487948e-23)
(0.85671779 0.043699275 2.4251613e-21)
(0.85671779 0.043699275 -2.4032952e-21)
(0.85671779 0.043699275 1.1873863e-35)
(0.85671779 0.043699275 0)
(0.85671779 0.043699275 -2.3943599e-21)
(0.85671779 0.043699275 2.4101522e-21)
(0.85671779 0.043699275 -9.3664305e-24)
(0.85671779 0.043699275 -1.2067776e-21)
(0.85671779 0.043699275 1.1959461e-21)
(0.85671779 0.043699275 -5.4868692e-36)
(0.85671779 0.043699275 0)
(0.85671779 0.043699275 -8.4900442e-24)
(0.85671779 0.043699275 8.4805412e-24)
(0.85671779 0.043699275 8.4710592e-24)
(0.85671779 0.043699275 0)
(0.85671779 0.043699275 8.4521591e-24)
(0.85671779 0.043699275 0)
(0.85671779 0.043699275 -1.0710345e-21)
(0.85671779 0.043699275 1.0782677e-21)
(0.85671779 0.043699275 0)
(0.85671779 0.043699275 1.0842805e-21)
(0.85671779 0.043699275 8.3959608e-24)
(0.85671779 0.043699275 -1.0734934e-21)
(0.85671779 0.043699275 1.5432373e-23)
(0.85671779 0.043699275 -1.973334e-21)
(0.85671779 0.043699275 1.9790288e-21)
(0.85671779 0.043699275 0)
(0.85671779 0.043699275 1.9596444e-21)
(0.85671779 0.043699275 -1.9576587e-21)
(0.85671779 0.043699275 -9.8934253e-22)
(0.85671779 0.043699275 9.8834206e-22)
(0.85671779 0.043699275 9.8734364e-22)
(0.85671779 0.043699275 -9.7870111e-22)
(0.85671779 0.043699275 -7.6383938e-24)
(0.85671779 0.043699275 9.767297e-22)
(0.85671779 0.043699275 -9.6050093e-22)
(0.85671779 0.043699275 -3.5358083e-24)
(0.85671779 0.043699275 1.8051132e-21)
(0.85671779 0.043699275 -3.6209799e-21)
(0.85671779 0.043699275 -3.5259353e-24)
(0.85671779 0.043699275 1.8000775e-21)
(0.85671779 0.043699275 -1.0558152e-23)
(0.85671779 0.043699275 0)
(0.85671779 0.043699275 8.8875277e-22)
(0.85671779 0.043699275 -1.8074452e-21)
(0.85671779 0.043699275 1.7952532e-21)
(0.85671779 0.043699275 -3.5031114e-24)
(0.85671779 0.043699275 -8.9596799e-22)
(0.85671779 0.043699275 -1.0489934e-23)
(0.85671779 0.043699275 -3.2632163e-24)
(0.85671779 0.043699275 -3.2604077e-24)
(0.85671779 0.043699275 -1.6678933e-21)
(0.85671779 0.043699275 3.3361752e-21)
(0.85671779 0.043699275 -1.6617777e-21)
(0.85671779 0.043699275 3.2492217e-24)