/*--------------------------------*- C++ -*----------------------------------*\
| =========                 |                                                 |
| \\      /  F ield         | OpenFOAM: The Open Source CFD Toolbox           |
|  \\    /   O peration     | Version:  2206                                  |
|   \\  /    A nd           | Website:  www.openfoam.com                      |
|    \\/     M anipulation  |                                                 |
\*---------------------------------------------------------------------------*/
FoamFile
{
    version     2.0;
    format      ascii;
    arch        "LSB;label=32;scalar=64";
    class       volScalarField;
    location    "0";
    object      yPlus;
}
// * * * * * * * * * * * * * * * * * * * * * * * * * * * * * * * * * * * * * //

dimensions      [0 0 0 0 0 0 0];

internalField   uniform 0;

boundaryField
{
    Side
    {
        type            empty;
    }
    Inlet
    {
        type            calculated;
        value           uniform 0;
    }
    Outlet
    {
        type            calculated;
        value           uniform 0;
    }
    Airfoil
    {
        type            calculated;
        value           nonuniform List<scalar> 
143
(
31.9758
32.0081
31.9693
31.8921
31.8571
31.9887
32.4137
33.0056
33.4886
33.8204
34.0925
34.3
34.4735
34.6034
34.7283
34.8356
34.888
34.9174
34.9401
34.964
34.9937
35.0179
35.0169
34.9616
34.805
34.5112
34.1494
33.6762
33.228
32.6914
32.3361
32.0933
32.0186
32.01
32.1021
32.2805
32.5074
32.6175
32.6535
31.004
29.5452
28.4423
27.5313
26.7708
26.1187
25.5556
25.0672
24.6447
24.2783
23.9618
23.6896
23.4579
23.2641
23.1049
22.9768
22.8786
22.8083
22.7636
22.7448
22.748
22.7731
22.816
22.8722
22.941
23.0201
23.1075
23.1993
23.2916
23.3841
23.4798
23.5791
23.6722
23.7492
23.8272
23.9482
24.0793
24.1352
24.0322
26.8295
26.6029
26.4485
26.2851
26.0873
25.8876
25.7118
25.5644
25.4253
25.2934
25.185
25.1134
25.0505
24.975
24.9181
24.8914
24.8444
24.7763
24.7043
24.6439
24.6013
24.5695
24.5597
24.5882
24.6673
24.7918
24.9569
25.1578
25.394
25.6722
25.993
26.3687
26.8132
27.3206
27.9257
28.6373
29.4872
30.5073
31.8566
50.2824
47.7083
45.1878
43.0467
41.3396
39.9461
38.8704
37.9165
37.0513
36.239
35.4415
34.7275
34.0475
33.3719
32.7745
32.2013
31.6099
30.9874
30.4538
30.0498
29.4103
28.4117
28.0294
28.1874
95.4838
95.4839
)
;
    }
    Flap
    {
        type            calculated;
        value           nonuniform List<scalar> 
95
(
18.6322
18.6071
18.84
19.2704
19.6845
20.0285
20.3905
20.7558
21.1257
21.469
21.7949
22.1132
22.4001
22.6684
22.9165
23.1409
23.3467
23.5336
23.7031
23.8561
23.9938
24.1208
24.2342
24.338
24.4331
24.5171
24.6056
24.6798
23.731
106.039
99.4239
99.4502
46.3817
58.6565
60.2353
56.9955
52.8719
48.9046
45.5546
42.9829
41.0655
39.3296
37.9908
36.8483
36.0185
35.2435
34.6245
33.9532
33.3689
32.725
32.0699
31.4895
30.8162
29.9641
29.1162
28.5049
23.5902
24.4666
24.6921
24.4226
24.4082
24.6172
24.8855
25.0718
25.2331
25.392
25.5586
25.7233
25.8572
25.9699
26.0928
26.2254
26.3533
26.4778
26.6083
26.7446
26.8849
27.0148
27.1402
27.2567
27.3604
27.4554
27.554
27.6528
27.7532
27.8442
27.9293
27.9956
28.0485
28.093
28.1359
28.1616
28.1796
28.1883
28.226
)
;
    }
}


// ************************************************************************* //
