/*--------------------------------*- C++ -*----------------------------------*\
| =========                 |                                                 |
| \\      /  F ield         | OpenFOAM: The Open Source CFD Toolbox           |
|  \\    /   O peration     | Version:  2206                                  |
|   \\  /    A nd           | Website:  www.openfoam.com                      |
|    \\/     M anipulation  |                                                 |
\*---------------------------------------------------------------------------*/
FoamFile
{
    version     2.0;
    format      ascii;
    arch        "LSB;label=32;scalar=64";
    class       volScalarField;
    location    "0.0452892";
    object      k_0;
}
// * * * * * * * * * * * * * * * * * * * * * * * * * * * * * * * * * * * * * //

dimensions      [0 2 -2 0 0 0 0];

internalField   nonuniform List<scalar> 
19794
(
3.0603538
3.679323
1.9655292
3.66756
2.4061553
1.2800991
3.5076491
2.4607267
1.5581836
0.99855842
3.1112389
2.4159968
1.6613521
1.185325
0.93245705
2.6713955
2.2410025
1.7506214
1.3118953
1.1215023
0.94382657
2.2838665
2.0518509
1.7927152
1.4717872
1.298143
1.2000057
0.99383076
2.0032503
1.8962718
1.8190176
1.6232647
1.5435179
1.472436
1.3991329
1.08785
1.8337808
1.79309
1.8322472
1.7472857
1.7977202
1.8466714
1.8651907
1.7527685
1.2488387
1.7657207
1.7382486
1.8355553
1.8246972
2.0043988
2.2301729
2.4824905
2.520954
2.3023155
1.5027628
1.7866342
1.726809
1.8321476
1.8570728
2.125683
2.5284379
3.0981179
3.4833699
3.4685341
3.0620127
1.8654575
1.882596
1.7564663
1.8282863
1.8559844
2.1654998
2.6852509
3.5642167
4.4063814
4.857173
4.6887602
4.0176588
2.338263
2.0358873
1.8252901
1.8310161
1.833778
2.1479115
2.7123787
3.8022418
5.0891916
6.1489728
6.5548146
6.1449794
5.1415484
2.910925
2.2251332
1.926847
1.8464769
1.8012951
2.0941396
2.6525875
3.8354063
5.4386535
7.0953907
8.2533424
8.526862
7.8012015
6.4051089
3.5669981
2.4294544
2.04942
1.8759257
1.7677388
2.0193572
2.5410034
3.7326946
5.4954843
7.5948108
9.4914673
10.662061
10.732495
9.6283359
7.7841046
4.288202
2.6326851
2.1796116
1.9150981
1.7384483
1.9359839
2.3995199
3.5507586
5.3587517
7.7081798
10.164045
12.215168
13.329775
13.140838
11.604219
9.2594137
5.0570249
2.8247566
2.3063965
1.9572826
1.7138913
1.8534517
2.2447882
3.3226878
5.1105885
7.5659375
10.355452
13.082088
15.217028
16.222654
15.729067
13.712099
10.816263
5.8581771
3.000786
2.4229338
1.9969913
1.6919048
1.7763142
2.0914205
3.0703188
4.7983376
7.2780703
10.229222
13.373839
16.296198
18.460131
19.3156
18.480275
15.939043
12.443263
6.6796565
3.1591829
2.5261387
2.0316043
1.6710255
1.7054234
1.9491415
2.8130042
4.449037
6.9093932
9.9249172
13.288019
16.708629
19.767077
21.916776
22.589876
21.381572
18.274512
14.131701
7.5140491
3.2996494
2.6152193
2.0607839
1.6518892
1.6412259
1.822167
2.5661472
4.0836223
6.4941432
9.5269851
12.994009
16.686795
20.319546
23.465234
25.566006
26.031079
24.422281
20.709017
15.875311
8.3605374
3.4218192
2.6901411
2.0850597
1.6363112
1.5855594
1.7122347
2.3394794
3.7188577
6.0540307
9.078952
12.596581
16.429372
20.385712
24.176866
27.368445
29.391603
29.627176
27.591995
23.232732
17.670767
9.2277558
3.5249213
2.7506106
2.1046389
1.6257094
1.5408158
1.6210522
2.1389319
3.366989
5.6036784
8.6044631
12.149676
16.061307
20.192677
24.356535
28.258893
31.459843
33.380169
33.366299
30.87818
25.833869
19.51931
10.136332
3.6082482
2.795874
2.1188678
1.6201083
1.5082541
1.5500294
1.9687799
3.0375157
5.1527208
8.115798
11.679934
15.647283
19.884622
24.258407
28.58012
32.550182
35.726115
37.518923
37.233952
34.262863
28.496715
21.42937
11.116168
3.671867
2.8251887
2.1264263
1.6180301
1.487119
1.4988682
1.8315086
2.7390055
4.7085976
7.6183048
11.197835
15.217501
19.53661
24.044227
28.611507
33.044846
37.039977
40.15544
41.792903
41.209124
37.717771
31.198979
23.417069
12.187541
3.7170228
2.8384792
2.1260022
1.6171288
1.4749136
1.4650332
1.7265122
2.4786522
4.2790372
7.1143507
10.704245
14.780976
19.182396
23.798392
28.529864
33.245992
37.745232
41.720287
44.73474
46.181085
45.258599
41.196868
33.907353
25.493137
13.318229
3.7460139
2.8367161
2.1169641
1.6151382
1.4684287
1.4444943
1.6499196
2.2603912
3.8725392
6.6066014
10.195786
14.333954
18.829538
23.557665
28.427196
33.342132
38.163819
42.68021
46.583221
49.445874
50.650873
49.328404
44.625009
36.567697
27.617283
14.381816
3.7616933
2.8218354
2.0996475
1.6105774
1.4648512
1.433063
1.595984
2.0839683
3.4972182
6.0995412
9.6692001
13.866926
18.46938
23.327811
28.342154
33.430317
38.491608
43.3734
47.850532
51.617087
54.260188
55.150075
53.330754
47.881103
39.083279
29.627974
15.181824
3.7669205
2.7963359
2.0751898
1.602919
1.4623559
1.4274634
1.5589705
1.9458227
3.1596468
5.5995055
9.1238494
13.370421
18.085854
23.094872
28.278077
33.549392
38.827109
43.997595
48.887135
53.254732
56.800617
59.130728
59.595193
57.124678
50.777009
41.285593
31.232897
15.554487
3.7642025
2.7628003
2.0451324
1.5923254
1.4600365
1.425634
1.5343709
1.8408535
2.8643955
5.1143283
8.5625065
12.838623
17.662946
22.835782
28.215224
33.699324
39.207026
44.647928
49.885765
54.717204
58.882871
62.094572
63.981123
63.854179
60.489349
53.048987
42.94007
32.141433
15.454173
3.7555782
2.723575
2.0110436
1.5792598
1.4574912
1.4263675
1.5190512
1.7637827
2.6139506
4.6529249
7.9912563
12.270767
17.189507
22.52762
28.123098
33.854067
39.626703
45.355907
50.931927
56.183844
60.868548
64.706863
67.429559
68.689701
67.721508
63.096503
54.393706
43.873201
32.222185
15.054444
3.7426025
2.6806533
1.9742952
1.5642033
1.4544572
1.4287834
1.5107328
1.7096149
2.4085266
4.2245009
7.4188942
11.671043
16.661189
22.153692
27.971521
33.975305
40.053256
46.110655
52.047915
57.722596
62.913956
67.327655
70.665856
72.688532
73.066998
70.883692
64.508579
54.665037
44.083798
31.678176
14.698014
3.7263955
2.6356519
1.9360065
1.5475437
1.4506555
1.4320249
1.5074581
1.6735702
2.2458344
3.8372417
6.8558698
11.047583
16.080249
21.705938
27.737986
34.025266
40.440267
46.871988
53.21473
59.341348
65.059469
70.079597
74.04482
76.644586
77.682054
76.823618
72.875847
64.335835
54.03036
43.791857
31.09643
14.356967
3.7077116
2.5898561
1.897091
1.5295839
1.4458006
1.4352315
1.5073893
1.6510555
2.1212012
3.4968377
6.3128932
10.410939
15.454113
21.184622
27.41056
33.975333
40.742103
47.585335
54.384587
61.010741
67.29194
72.963427
77.644223
80.906677
82.442033
82.113543
79.52075
73.092402
62.457574
53.281167
43.402761
30.480805
14.053255
3.6870259
2.5442535
1.8582891
1.510589
1.439668
1.4376388
1.5088814
1.6378725
2.0282945
3.2055118
5.7995978
9.7724842
14.793437
20.596491
26.987432
33.809456
40.923698
48.197064
55.495098
62.675393
69.569066
75.936517
81.4116
85.497212
87.69517
87.727147
85.52713
80.514955
70.881394
60.22126
52.869379
42.909213
29.902283
13.792862
3.6646585
2.49959
1.8202044
1.4908243
1.4321502
1.4386721
1.5106168
1.6305052
1.9602226
2.9619514
5.3235832
9.1430695
14.110236
19.952429
26.474686
33.52362
40.964573
48.665353
56.484827
64.266117
71.828403
78.940694
85.264605
90.296433
93.401629
94.028787
91.973809
87.2426
78.885459
67.28643
58.915145
52.524239
42.378796
29.389907
13.574614
3.6408556
2.4564038
1.7833241
1.4705759
1.4232752
1.4379867
1.5116689
1.6262805
1.910556
2.7620611
4.8899711
8.5322008
13.416474
19.265344
25.883587
33.123259
40.858287
48.96484
57.304927
65.714417
73.995992
81.907744
89.125549
95.170991
99.361924
100.91801
99.276672
94.384095
86.224902
74.934435
64.583039
58.043464
52.178593
41.86494
28.951215
13.394305
3.6156421
2.415061
1.748015
1.4501379
1.4131888
1.435457
1.5114802
1.6233404
1.8739371
2.6001229
4.5013989
7.9476938
12.723185
18.54857
25.22816
32.620153
40.609557
49.086274
57.924572
66.964356
75.997953
84.762445
92.922943
100.01942
105.38088
108.10924
107.2937
102.45901
93.729521
82.334962
71.314943
62.396132
57.450777
51.837703
41.396624
28.583373
13.246748
3.5884178
2.37579
1.714548
1.4297931
1.4021142
1.4311338
1.5097934
1.6205001
1.8462546
2.4698955
4.1582678
7.3956215
12.040043
17.814862
24.523358
32.029653
40.230766
49.033448
58.331048
67.97886
77.771595
87.428664
96.585715
104.7702
111.32882
115.33826
115.66052
111.33146
102.05403
89.643212
78.335899
67.834652
60.770478
57.046902
51.511112
40.986085
28.279097
13.126764
3.5576937
2.3386311
1.6831286
1.4097898
1.390315
1.4251928
1.5065705
1.6170746
1.8245258
2.3653876
3.8591285
6.8803982
11.375232
17.075827
23.783872
31.368599
39.738812
48.819342
58.52675
68.740718
79.272641
89.838015
100.04068
109.36432
117.13787
122.44361
124.04528
120.59157
111.16321
97.473104
85.21603
74.051141
64.862482
59.645709
56.754241
51.209732
40.635341
28.029696
13.029629
3.535166
2.3028334
1.6538478
1.3903105
1.3780657
1.4178848
1.501918
1.6127261
1.8066738
2.2812823
3.6011312
6.4048897
10.735434
16.341659
23.023386
30.653858
39.152676
48.462559
58.525055
69.25004
80.477807
91.93797
103.21611
113.73939
122.77091
129.36431
132.25361
129.8607
120.67844
105.94419
92.367924
80.24944
70.012197
62.549972
58.89054
56.529082
50.940688
40.340901
27.826567
12.951236
3.5320619
2.278905
1.626243
1.3714712
1.3656307
1.4094851
1.4960259
1.6073479
1.7912995
2.2131001
3.3804811
5.9705084
10.125855
15.621014
22.254171
29.901398
38.49167
47.984471
58.346313
69.520064
81.383387
93.696865
106.05027
117.82478
128.18741
136.09546
140.23277
138.91863
130.22376
114.79928
100.005
86.532404
75.358169
66.567317
60.859501
58.386369
56.3487
50.706681
40.09675
27.661869
12.888106
3.5289085
2.2757777
1.6088302
1.3533282
1.3532389
1.4002508
1.4891207
1.6009733
1.7774901
2.1572023
3.1928736
5.5773533
9.5503089
14.921006
21.486875
29.125739
37.774318
47.407167
58.014532
69.572733
82.001426
95.104769
108.50007
121.54927
133.32517
142.63185
148.018
147.719
139.56871
123.73732
107.9888
93.142941
80.70564
70.990708
63.847565
59.669556
58.046372
56.201123
50.507114
39.896074
27.528763
12.837349
3.5257511
2.2721679
1.6053183
1.3423396
1.3410371
1.3904329
1.4814386
1.5937065
1.7646702
2.1107173
3.0338805
5.2243762
9.0112859
14.247219
20.730445
28.339635
37.017605
46.75201
57.554869
69.434796
82.354936
96.170686
110.54571
124.85451
138.10503
148.9307
155.65274
156.33636
148.66418
132.55133
116.10567
100.05748
86.25293
75.430875
67.388515
61.819665
58.846628
57.813034
56.079413
50.339418
39.732187
27.421447
12.796588
3.5226184
2.2681531
1.6016735
1.339385
1.3336502
1.38037
1.4732107
1.5856725
1.7524884
2.0714291
2.8992365
4.9095982
8.5100838
13.603814
19.992168
27.553989
36.236623
46.038796
56.991946
69.134824
82.473364
96.917631
112.19017
127.70579
142.44968
154.90964
163.128
164.86866
157.61071
141.17891
124.18559
107.15789
92.057638
79.990909
71.022482
64.605141
60.363499
58.279465
57.649692
55.978933
50.200065
39.59898
27.335079
12.763882
3.5195049
2.2638063
1.597864
1.3365469
1.3311612
1.3742784
1.4646974
1.5770245
1.740739
2.037647
2.7850396
4.630378
8.0469617
12.993632
19.277731
26.777821
35.444378
45.285228
56.348723
68.701058
82.388874
97.377318
113.45462
130.09562
146.30306
160.46978
170.36879
173.35327
166.55632
149.71088
132.15437
114.31856
98.086292
84.756336
74.746083
67.583553
62.560349
59.338764
57.886498
57.533093
55.896171
50.085239
39.491096
27.26566
12.737658
3.5163908
2.2591952
1.5939312
1.3338059
1.3287858
1.3720069
1.4594744
1.5680777
1.7293336
2.0080882
2.6878464
4.3836572
7.6213204
12.418366
18.591378
26.01838
34.651795
44.506697
55.645887
68.160072
82.133709
97.585518
114.37205
132.04026
149.64102
165.5261
177.25766
181.73875
175.59147
158.31009
140.07988
121.44888
104.26209
89.750655
78.616901
70.662309
65.052651
61.109396
58.622324
57.611495
57.448339
55.828245
49.991232
39.403957
27.209922
12.716641
3.5132743
2.2543818
1.5898901
1.3311444
1.3264822
1.3699217
1.4573101
1.5626731
1.7183748
1.9818327
2.6047069
4.1661809
7.2319011
11.878741
17.936049
25.281278
33.867802
43.716266
54.90159
67.536012
81.738519
97.57874
114.98152
133.57233
152.47055
170.02941
183.67555
189.8999
184.70811
167.09743
148.1216
128.57878
110.48366
94.948588
82.675555
73.827043
67.684376
63.272956
60.099833
58.120022
57.416676
57.385726
55.772707
49.914653
39.33372
27.165205
12.699805
3.5101735
2.2494221
1.5857471
1.3285489
1.3242442
1.3679831
1.4553112
1.5603308
1.7120276
1.9584579
2.5332116
3.974664
6.8769325
11.374722
17.313627
24.57069
33.099497
42.924772
54.131378
66.8502
81.231319
97.39201
115.32375
134.73315
154.82098
173.97179
189.53925
197.68066
193.79923
176.10698
156.41315
135.85385
116.73932
100.25653
86.947276
77.091354
70.344621
65.631247
62.060394
59.402338
57.764874
57.276845
57.338815
55.727463
49.852508
39.277196
27.129351
12.68632
3.4989653
2.244388
1.581542
1.326009
1.3220577
1.3661609
1.4534359
1.558237
1.7091027
1.9455352
2.4717472
3.8060266
6.5542276
10.90563
16.725124
23.889573
32.352355
42.140981
53.348289
66.121082
80.637113
97.057708
115.43832
135.56714
156.73405
177.37688
194.81604
204.9519
202.68444
185.27643
165.01262
143.41696
123.15436
105.62988
91.374406
80.523132
72.982283
67.971095
64.277059
61.24915
58.919411
57.510899
57.175158
57.303243
55.690721
49.802229
39.231767
27.100617
12.675523
3.4770728
2.2280008
1.5773809
1.3235193
1.3199082
1.3644317
1.4516662
1.5563342
1.7065085
1.9396909
2.4381492
3.6581601
6.2614415
10.470115
16.170782
23.239906
31.630478
41.371831
52.563058
65.364321
79.977728
96.604919
115.36209
136.11798
158.25668
180.28572
199.51463
211.64892
211.18211
194.43673
173.89137
151.34551
129.87772
111.16843
95.899228
84.130284
75.692928
70.154536
66.441677
63.412062
60.710205
58.5823
57.326978
57.10027
57.275998
55.660964
49.761646
39.19529
27.077598
12.666879
3.4539145
2.2018293
1.5641395
1.3210878
1.3177968
1.3627764
1.4499819
1.5545834
1.7041612
1.9346921
2.4230898
3.5748782
5.997485
10.066403
15.649915
22.622758
30.93687
40.622706
51.784322
64.592965
79.271883
96.059282
115.12842
136.42673
159.43619
182.74441
203.66872
217.76512
219.18204
203.3704
182.89616
159.64452
137.00119
117.01922
100.59057
87.867839
78.570369
72.287354
68.324919
65.501429
62.87125
60.351659
58.344218
57.192091
57.044465
57.254955
55.636921
49.728948
39.166022
27.059159
12.65996
3.4310267
2.1808728
1.5430196
1.3134484
1.3157492
1.3611801
1.4483645
1.5529542
1.7020139
1.9303187
2.4104337
3.5373471
5.8439412
9.6946644
15.161073
22.037982
30.273465
39.897737
51.018987
63.817731
78.535405
95.443077
114.76691
136.53124
160.31708
184.80039
207.32559
223.32325
226.65062
211.92263
191.78668
168.19008
144.5618
123.28283
105.57924
91.768097
81.606298
74.554031
70.029219
67.205001
64.946108
62.537661
60.111396
58.173825
57.091959
57.002432
57.238592
55.617531
49.702643
39.142552
27.044397
12.654422
3.408912
2.1634442
1.5251603
1.30173
1.3092918
1.3596313
1.4468042
1.5514225
1.7000272
1.9264265
2.399547
3.5059895
5.7730753
9.4732886
14.705334
21.484279
29.640682
39.199809
50.272511
63.047335
77.781513
94.775412
114.30372
136.46563
160.94034
186.49978
210.53246
228.35802
233.59518
220.0428
200.37393
176.73137
152.47684
130.02931
110.96908
95.926593
84.791334
76.997191
71.82094
68.615298
66.55408
64.630439
62.333637
59.948609
58.050196
57.016794
56.970466
57.225798
55.601918
49.681505
39.123743
27.032579
12.64999
3.3878081
2.1485623
1.5095651
1.2919944
1.2993685
1.3546656
1.4452994
1.5499683
1.6981696
1.9229121
2.3900072
3.4792339
5.7138424
9.3682731
14.429886
20.963435
29.037368
38.529963
49.548903
62.288855
77.021136
94.072475
113.76175
136.26003
161.34348
187.88538
213.33468
232.90826
240.03533
227.7343
208.59168
185.04088
160.49687
137.23061
116.87032
100.44583
88.165285
79.5612
73.795527
70.065248
67.777088
66.196029
64.458825
62.209611
59.836838
57.959298
56.9598
56.945952
57.215748
55.589362
49.664534
39.108672
27.023118
12.646444
3.3678405
2.1356119
1.4956397
1.2836309
1.2906983
1.3470119
1.4404895
1.5485714
1.6964178
1.9196976
2.3815105
3.4559816
5.6633934
9.2806155
14.29564
20.645096
28.465906
37.887206
48.849974
61.547689
76.26334
93.347897
113.16062
135.94099
161.56045
188.99629
215.77422
237.01286
245.9945
234.9969
216.4368
193.02587
168.34723
144.65258
123.32695
105.49032
91.826223
82.211975
75.847438
71.695795
68.999043
67.308177
66.012956
64.371445
62.134647
59.758976
57.891635
56.9162
56.927015
57.207827
55.579275
49.650917
39.096601
27.015547
12.643607
3.3490906
2.1241521
1.4830535
1.2762829
1.2829334
1.3402263
1.4330193
1.5440884
1.6947522
1.9167226
2.3738329
3.4354324
5.6196756
9.2061524
14.183946
20.485878
28.113364
37.274544
48.17499
60.826627
75.515256
92.613206
112.51722
135.53189
161.62106
189.86848
217.88931
240.70925
251.49718
241.82633
223.89886
200.67657
175.8922
151.96872
130.13409
111.19663
96.011679
85.040206
77.855547
73.349597
70.395304
68.388865
67.06479
65.930535
64.332048
62.089659
59.703921
57.840698
56.88259
56.912296
57.201564
55.571177
49.639999
39.086937
27.009488
12.641337
3.331633
2.1138511
1.4715761
1.2697042
1.2758252
1.334078
1.4262073
1.5371849
1.6894894
1.9139319
2.3668055
3.416996
5.5811655
9.1418499
14.089453
20.353977
27.932443
36.893423
47.527688
60.125353
74.780938
91.877721
111.84603
135.0532
161.55202
190.53503
219.71509
244.03269
256.56834
248.22335
230.96253
207.98732
183.1191
158.98396
136.90792
117.40159
100.97296
88.374831
79.898464
74.812131
71.757486
69.63717
68.06465
66.953424
65.90377
64.319137
62.062939
59.664416
57.801971
56.856512
56.900796
57.196601
55.564682
49.63125
39.079198
27.004639
12.63952
3.3155462
2.1044541
1.4610402
1.2637097
1.2692152
1.3283832
1.4198928
1.5308402
1.6815694
1.9053489
2.3602835
3.4002284
5.5467289
9.0854301
14.008245
20.242947
27.78322
36.692757
47.121919
59.448523
74.060698
91.1472
111.15912
134.52291
161.37718
191.02615
221.28383
247.01731
261.23217
254.19113
237.6163
214.94484
190.0418
165.67306
143.37494
123.65848
106.59924
92.602983
82.408104
76.142897
72.778518
70.797105
69.226836
67.911687
66.916114
65.906213
64.320179
62.047314
59.635666
57.772272
56.836166
56.891771
57.192661
55.559474
49.624241
39.073004
27.000758
12.638066
3.300913
2.0957596
1.4513278
1.2581559
1.2629808
1.3229973
1.4139023
1.5249184
1.6742832
1.8930198
2.3407087
3.38475
5.515504
9.0351697
13.937346
20.148065
27.658249
36.527955
46.90265
59.02116
73.360449
90.422946
110.46444
133.95633
161.118
191.36954
222.62545
249.69647
265.51101
259.73012
243.84732
221.5339
196.65863
172.07148
149.48616
129.5992
112.37643
97.676047
85.923707
77.877043
73.491107
71.475913
70.253073
69.02882
67.856761
66.918163
65.922702
64.32799
62.038396
59.614465
57.749327
56.820219
56.884664
57.189528
55.555301
49.618627
39.068047
26.997653
12.635819
3.2878092
2.0876023
1.4423575
1.2529298
1.2570229
1.3178
1.4081091
1.5192536
1.6674688
1.8819877
2.3131988
3.3390346
5.4867749
8.9897807
13.87452
20.065703
27.552048
36.390626
46.723274
58.783907
72.915375
89.712481
109.76469
133.36418
160.79326
191.59069
223.76825
252.10284
269.42658
264.83758
249.63752
227.73487
202.96193
178.20386
155.3032
135.14207
117.8303
103.01094
90.468958
80.713501
74.522619
71.673616
70.675478
69.97034
68.954407
67.855006
66.939401
65.944779
64.338541
62.033502
59.59864
57.731489
56.807671
56.87905
57.187034
55.551958
49.614132
39.064079
26.99275
12.631732
3.2762853
2.0798387
1.4340713
1.2479415
1.2512635
1.3126879
1.4024057
1.5137033
1.6609111
1.871872
2.2889336
3.2746431
5.4026789
8.948191
13.818069
19.993133
27.460392
36.274555
46.574485
58.590483
72.661107
89.258346
109.06972
132.75116
160.41673
191.71248
224.73925
254.26832
272.99903
269.51149
254.9648
233.51784
208.93302
184.07725
160.88359
140.37595
122.84016
108.02146
95.395006
84.758239
76.728385
72.09169
70.458763
70.205152
69.844372
68.948114
67.879829
66.968444
65.967898
64.349648
62.030992
59.586701
57.717549
56.797767
56.874604
57.185046
55.54928
49.610531
39.057775
26.983751
12.625425
3.2663439
2.0723345
1.4264236
1.2431201
1.2456437
1.3075732
1.3966973
1.5081404
1.6544395
1.8623021
2.2669071
3.2176151
5.2829835
8.8274119
13.7666
19.928294
27.380089
36.174943
46.449378
58.430691
72.454408
88.990272
108.62437
132.13003
159.9955
191.75255
225.5637
256.22414
276.24716
273.75206
259.81003
238.84543
214.53459
189.67843
166.24988
145.39167
127.52207
112.54473
100.00379
89.305328
80.304592
73.728566
70.358628
69.663208
69.943878
69.808066
68.976511
67.915963
66.999116
65.989765
64.360194
62.029868
59.577606
57.706606
56.78993
56.871077
57.183462
55.547136
49.604776
39.04618
26.969865
12.615827
3.2579197
2.0649548
1.419369
1.2384113
1.2401231
1.3023842
1.3909034
1.5024496
1.6479065
1.8529764
2.2462443
3.1654483
5.1752105
8.6547675
13.618333
19.869512
27.308748
36.088145
46.342553
58.296952
72.284243
88.772684
108.35081
131.73441
159.54621
191.72139
226.26218
258.00009
279.19084
277.56236
264.16091
243.68376
219.7155
194.96584
171.39437
150.22674
131.99843
116.72315
104.08979
93.550721
84.501351
76.874352
71.496764
69.136711
69.150896
69.8106
69.819974
69.020134
67.954983
67.028261
66.009349
64.369669
62.029528
59.570619
57.697986
56.783715
56.868274
57.182198
55.543706
49.594156
39.028277
26.948729
12.60152
3.2508642
2.0575636
1.4128509
1.2337765
1.2346802
1.2970688
1.3849614
1.4965289
1.6411809
1.8436439
2.2262599
3.1160925
5.0748085
8.4966134
13.40737
19.701253
27.244399
36.011427
46.249935
58.183282
72.14237
88.593951
108.12892
131.47633
159.2702
191.63919
226.8484
259.62135
281.8519
280.95049
268.01012
248.00694
224.4251
199.87583
176.2735
154.87629
136.31782
120.70759
107.82005
97.247892
88.419165
80.750266
74.25567
69.848447
68.280322
68.825636
69.753037
69.855344
69.068096
67.992498
67.054443
66.026321
64.377902
62.029609
59.565215
57.691175
56.778778
56.866045
57.18024
55.537371
49.577742
39.001002
26.917215
12.580837
3.2449411
2.050023
1.4067962
1.2291918
1.2293103
1.2915984
1.3788317
1.4902949
1.6341493
1.8340942
2.2064164
3.0679163
4.9779768
8.3465762
13.211084
19.464784
27.060908
35.942577
46.168466
58.085132
72.022234
88.445316
107.94677
131.26625
159.06696
191.62533
227.3477
261.1058
284.25093
283.93366
271.35325
251.78945
228.62002
204.34041
180.8133
159.29547
140.47489
124.55228
111.37001
100.58605
91.7736
84.374837
77.841967
72.267124
68.63487
67.68097
68.621797
69.738439
69.8999
69.114637
68.026444
67.077179
66.040716
64.3849
62.029899
59.561009
57.685781
56.774853
56.862674
57.176693
55.527575
49.552696
38.960277
26.871639
12.552206
3.2398365
2.0421969
1.4011123
1.2246462
1.2240227
1.2859701
1.3725023
1.4836906
1.6267236
1.8241563
2.186301
3.01963
4.8815838
8.1990434
13.021828
19.241592
26.807978
35.746081
46.095627
57.999127
71.918861
88.319768
107.79544
131.09313
158.89995
191.55968
227.75275
262.47898
286.4042
286.53302
274.1936
254.99834
232.25168
208.29829
184.9292
163.40177
144.42329
128.24877
114.79471
103.761
94.773074
87.429817
81.20674
75.596394
70.760218
67.740937
67.2605
68.495728
69.746808
69.945773
69.156991
68.056067
67.096491
66.052746
64.390758
62.030273
59.55772
57.681502
56.768859
56.856657
57.171264
55.512616
49.515211
38.901258
26.80852
12.514847
3.2351724
2.0339508
1.3956882
1.2201383
1.2188358
1.2802075
1.3659912
1.4766933
1.6188497
1.8137051
2.1656224
2.9702524
4.7830616
8.0492226
12.832443
19.023048
26.565723
35.482536
45.886298
57.922451
71.82848
88.211895
107.66762
130.9487
158.76063
191.49986
227.92786
263.52328
288.3382
288.76198
276.53959
257.59967
235.24962
211.68047
188.54361
167.09517
148.07317
131.74839
118.08033
106.82518
97.629867
90.139788
84.002536
78.733842
73.865259
69.617603
67.080244
66.963911
68.418921
69.766244
69.988909
69.194093
68.081316
67.112647
66.062694
64.395608
62.030662
59.555136
57.674885
56.758122
56.847535
57.163105
55.490201
49.460696
38.819288
26.7261
12.469639
3.2305245
2.0251577
1.3903987
1.2156714
1.2137702
1.2743564
1.3593449
1.4693206
1.6105156
1.8026698
2.144221
2.9191296
4.6803758
7.8930119
12.636642
18.800706
26.324696
35.226147
45.615721
57.698559
71.747997
88.117631
107.55767
130.82609
158.64272
191.44392
228.05886
264.08581
289.72996
290.65178
278.39213
259.56501
237.52699
214.38404
191.57246
170.28274
151.30957
134.95468
121.17511
109.75759
100.3916
92.730101
86.467239
81.307502
76.806372
72.530094
68.748925
66.589287
66.753078
68.373004
69.789881
70.027476
69.225802
68.102492
67.126018
66.070856
64.399593
62.031032
59.551015
57.663013
56.741852
56.83403
57.15117
55.457539
49.384605
38.711844
26.626275
12.419619
3.2254411
2.0156968
1.3851109
1.2112482
1.2088422
1.2684764
1.3526321
1.4616315
1.6017569
1.7910425
2.1220732
2.8659693
4.5721002
7.7269975
12.428883
18.566987
26.075322
34.966656
45.347903
57.423072
71.506041
88.033487
107.46129
130.71981
158.54075
191.39096
228.15373
264.52053
290.51925
291.94847
279.77843
260.85763
239.00012
216.27156
193.89091
172.86984
154.02422
137.73803
123.97662
112.50302
103.02921
95.242492
88.836501
83.56606
79.191487
75.303735
71.498322
68.085862
66.222005
66.601799
68.346258
69.813925
70.060893
69.252449
68.120051
67.136997
66.077517
64.402847
62.031362
59.543641
57.645146
56.717787
56.814747
57.134383
55.411806
49.284203
38.581104
26.515713
12.369443
3.2194483
2.005448
1.3796913
1.2068663
1.2040573
1.2626303
1.3459324
1.4537213
1.5926577
1.7788832
2.0992943
2.8108675
4.4575472
7.5486172
12.204398
18.315059
25.808855
34.693423
45.071708
57.14497
71.227377
87.768121
107.37459
130.62565
158.45029
191.33957
228.21979
264.85288
291.12369
292.69432
280.60687
261.46761
239.57525
217.20336
195.32164
174.71979
156.11449
139.97415
126.34112
114.95363
105.48383
97.639676
91.145945
85.753286
81.278022
77.530283
74.130711
70.698693
67.57732
65.945215
66.492126
68.331268
69.83642
70.089249
69.274577
68.13449
67.145959
66.082928
64.407603
62.032039
59.532869
57.619003
56.68347
56.788651
57.112019
55.351171
49.161014
38.435541
26.404685
12.323824
3.2120516
1.9942914
1.3740089
1.2025159
1.1994072
1.2568721
1.3393234
1.4457076
1.583342
1.7663174
2.0761228
2.7543133
4.3368828
7.3564149
11.959448
18.038918
25.517281
34.396599
44.775438
56.852145
70.939521
87.488693
107.07889
130.53931
158.36775
191.28829
228.26215
265.10469
291.58575
293.25518
281.01185
261.53202
239.18006
217.02841
195.67309
175.62846
157.43958
141.55346
128.12795
116.95274
107.64299
99.859237
93.350483
87.899027
83.316182
79.474197
76.225009
73.213099
70.076862
67.185302
65.735056
66.411759
68.32338
69.856488
70.112961
69.292792
68.146289
67.153243
66.091057
64.416343
62.033803
59.517875
57.582372
56.637135
56.755968
57.084263
55.27626
49.022556
38.288584
26.303636
12.285931
3.2027274
1.9820941
1.3679388
1.1981795
1.194868
1.2512389
1.3328668
1.4377132
1.5739571
1.7535236
2.0528891
2.6971369
4.2111902
7.150312
11.691714
17.733737
25.193442
34.066999
44.448073
56.531709
70.629189
87.191906
106.80431
130.20483
158.28862
191.23572
228.28464
265.29287
291.9386
293.67667
281.2853
261.36522
238.24681
215.59898
194.74029
175.35839
157.78149
142.33672
129.22106
118.34401
109.33876
101.7848
95.384389
89.951137
85.330644
81.390812
78.051353
75.197893
72.493527
69.591569
66.881588
65.57433
66.352234
68.319696
69.87386
70.132584
69.307691
68.155887
67.164298
66.106038
64.430645
62.038137
59.49862
57.534302
56.579327
56.719222
57.052644
55.191308
48.881403
38.15418
26.21963
12.256775
3.1908967
1.9686966
1.3613622
1.1938334
1.190402
1.2457455
1.3265994
1.4298467
1.5646527
1.7407109
2.0299717
2.6404
4.0824196
6.931815
11.400736
17.396398
24.831504
33.696335
44.079235
56.171381
70.28216
86.863048
106.50204
129.94618
157.90684
191.17729
228.28977
265.43062
292.20722
293.99628
281.46988
261.14538
237.33219
213.64841
192.29017
173.65737
156.86567
142.10401
129.487
119.00582
110.40114
103.23938
97.128183
91.840939
87.263143
83.300378
79.869207
76.927807
74.388217
71.927807
69.211515
66.645168
65.450582
66.30769
68.318428
69.888597
70.148697
69.319819
68.170493
67.184761
66.130164
64.454277
62.048212
59.477185
57.477101
56.514761
56.683444
57.019872
55.10381
48.751131
38.041988
26.154948
12.235648
3.1758793
1.9538903
1.3541618
1.1894497
1.1859596
1.2403838
1.3205276
1.4221874
1.5555569
1.7280896
2.0077449
2.5852455
3.9531759
6.7040405
11.088277
17.026093
24.427616
33.277788
43.659472
55.759465
69.88469
86.486341
106.15577
129.64684
157.68574
190.74619
228.27376
265.52784
292.41154
294.23984
281.59842
260.91458
236.46721
211.96636
189.35235
170.21251
154.40099
140.55853
128.71518
118.81441
110.70489
104.04218
98.397991
93.446553
89.042426
85.139451
81.695121
78.665637
76.039382
73.748746
71.48194
68.912913
66.460336
65.354724
66.274036
68.318489
69.900921
70.161853
69.338337
68.197588
67.217732
66.169178
64.493537
62.070144
59.459545
57.418218
56.452645
56.654514
56.98899
55.022207
48.641549
37.955328
26.108057
12.221005
3.1568193
1.9373895
1.346217
1.1849981
1.1814825
1.2351247
1.3146275
1.4147765
1.5467595
1.7158416
1.986527
2.5327289
3.8263803
6.4714762
10.758471
16.624854
23.980691
32.806819
43.180957
55.285253
69.423617
86.046385
105.74799
129.28882
157.40826
190.59945
227.81213
265.58362
292.56746
294.42662
281.68969
260.70099
235.69408
210.43539
186.91718
166.33818
150.02132
137.38685
126.60877
117.57938
110.14003
104.06731
99.005571
94.579263
90.544834
86.834579
83.461347
80.424896
77.712515
75.335837
73.242772
71.129723
68.677619
66.315283
65.28007
66.248386
68.319225
69.911123
70.182161
69.37277
68.241342
67.271083
66.232267
64.558356
62.113997
59.456292
57.369608
56.403583
56.636186
56.962351
54.952912
48.556397
37.892359
26.075544
12.211167
3.1325499
1.918787
1.3373924
1.1804467
1.176905
1.229922
1.308848
1.4076144
1.5383017
1.7040968
1.9665457
2.4836756
3.7048516
6.2394719
10.417601
16.197824
23.493097
32.282104
42.638462
54.739842
68.886819
85.528326
105.26142
128.85283
157.05512
190.37921
227.78998
265.17753
292.67959
294.57209
281.75603
260.51479
235.03505
209.09661
184.72229
163.18868
145.29436
132.2268
122.86834
115.03293
108.54784
103.22316
98.827695
95.046481
91.578482
88.26083
85.092606
82.134313
79.418674
76.956765
74.777893
72.841744
70.850911
68.491737
66.20107
65.221661
66.228684
68.320256
69.927349
70.220264
69.428468
68.312364
67.35743
66.333196
64.662372
62.192549
59.479659
57.342729
56.374145
56.628292
56.941074
54.898646
48.494253
37.848628
26.053697
12.204697
3.1011799
1.8974823
1.3275218
1.1757613
1.1721564
1.2247154
1.3031142
1.4006642
1.5301738
1.6929198
1.9479161
2.4385973
3.590916
6.013526
10.073475