/*--------------------------------*- C++ -*----------------------------------*\
| =========                 |                                                 |
| \\      /  F ield         | OpenFOAM: The Open Source CFD Toolbox           |
|  \\    /   O peration     | Version:  2206                                  |
|   \\  /    A nd           | Website:  www.openfoam.com                      |
|    \\/     M anipulation  |                                                 |
\*---------------------------------------------------------------------------*/
FoamFile
{
    version     2.0;
    format      ascii;
    arch        "LSB;label=32;scalar=64";
    class       volScalarField;
    location    "0.0452892";
    object      nut;
}
// * * * * * * * * * * * * * * * * * * * * * * * * * * * * * * * * * * * * * //

dimensions      [0 2 -1 0 0 0 0];

internalField   nonuniform List<scalar> 
19794
(
1.0851779
1.1816933
0.87439704
1.1715831
0.96291266
0.69420853
1.1343674
0.96596174
0.76474867
0.60341941
1.0583678
0.94578532
0.78497951
0.65618461
0.57978258
0.97388099
0.90039404
0.79814331
0.68908846
0.63512375
0.58218842
0.89737035
0.85454865
0.80085575
0.72759174
0.68584609
0.66003512
0.59724984
0.84035781
0.81854272
0.80254409
0.7623808
0.75104101
0.74254069
0.72417601
0.62817481
0.80568489
0.79578886
0.80390012
0.78989775
0.81369368
0.84533792
0.86444175
0.83564537
0.68436379
0.79323952
0.78462601
0.80456966
0.80667913
0.86083833
0.94089932
1.0263961
1.0514688
0.9968424
0.77319402
0.8014448
0.78374435
0.80441856
0.8135019
0.88652047
1.0084595
1.1687908
1.277372
1.2871305
1.1945123
0.89338506
0.82707815
0.79282715
0.80456014
0.81306823
0.89361292
1.0408959
1.2654617
1.4640572
1.5653561
1.5409519
1.4055453
1.0345984
0.86503323
0.81151501
0.80667389
0.80808719
0.88819285
1.0443375
1.3108181
1.5870945
1.7850352
1.8525013
1.7846615
1.606486
1.1812689
0.90926212
0.83797212
0.81232803
0.80094357
0.87485186
1.0290762
1.3152151
1.6457406
1.9280005
2.0918996
2.1130155
1.9978927
1.7786309
1.3169647
0.95441481
0.86887763
0.82183605
0.79380203
0.8565888
1.0022764
1.2934208
1.6547187
1.9985465
2.2470275
2.362449
2.331659
2.1676728
1.9089888
1.4273238
0.9968413
0.90061502
0.83401164
0.78803891
0.8360781
0.96777729
1.2555427
1.6323854
2.0147055
2.3255411
2.5243149
2.585356
2.5001976
2.2864207
1.9895658
1.5014519
1.0346398
0.93037067
0.84694801
0.78380434
0.81573188
0.92875225
1.2063493
1.5913383
1.9974667
2.347675
2.6076571
2.75084
2.7555922
2.6146449
2.3503168
2.0163893
1.5323349
1.0672259
0.95652307
0.85898725
0.78043681
0.7969331
0.88882847
1.1488797
1.5372275
1.9615497
2.336523
2.6340552
2.836818
2.9235584
2.8715379
2.6736388
2.3582699
1.9887431
1.5168141
1.0947889
0.97848217
0.86919357
0.77731106
0.77997772
0.85105266
1.0869483
1.4724642
1.9137009
2.308754
2.628428
2.8656348
3.0110309
3.0424238
2.9334616
2.6775718
2.3113326
1.9086851
1.4554939
1.1178047
0.99630905
0.87728943
0.77430165
0.76483739
0.81708081
1.0246525
1.3995771
1.8560622
2.2723166
2.6092934
2.8639787
3.0407283
3.1312203
3.1089052
2.9427617
2.6281611
2.212413
1.7808098
1.3528039
1.1367252
1.0103275
0.88336539
0.77166302
0.75176548
0.78762564
0.96523208
1.3216179
1.7897986
2.2294291
2.585788
2.8522526
3.0412117
3.1607084
3.1997003
3.1252739
2.9016098
2.5282743
2.0661791
1.612222
1.2173621
1.1518827
1.0208548
0.88759317
0.76968295
0.74122944
0.76318244
0.91095447
1.2414963
1.7161254
2.1803306
2.5603037
2.8408022
3.0349453
3.1615302
3.2283718
3.2194646
3.0942741
2.8128099
2.38191
1.8790967
1.4127693
1.0626293
1.1635427
1.0281068
0.89005084
0.76842035
0.73351558
0.74413395
0.86356605
1.1618338
1.6361553
2.124772
2.532372
2.8322249
3.0335727
3.1584828
3.227908
3.2471999
3.1938645
3.018981
2.679779
2.1942782
1.6595976
1.1956655
0.90712125
1.1720009
1.0322422
0.89069879
0.76763374
0.72846618
0.73042707
0.82434962
1.08531
1.5509036
2.0622585
2.5005771
2.8254404
3.0399459
3.1646622
3.2257846
3.2440962
3.2210345
3.1264655
2.9027519
2.506602
1.9719622
1.4184635
0.97832317
0.77223674
1.1776412
1.0334566
0.88946738
0.76689015
0.72550513
0.72140369
0.79374257
1.0147264
1.4617121
1.9921552
2.4631585
2.8180222
3.0524453
3.1832607
3.2367555
3.2407049
3.21428
3.1539338
3.0209813
2.749225
2.2981406
1.7231761
1.1695699
0.78167572
0.67708225
1.1809272
1.0320462
0.88636746
0.76576064
0.72387548
0.71598275
0.77114551
0.95251016
1.3706321
1.9140647
2.4182615
2.8071359
3.0677411
3.2121971
3.2644676
3.2536812
3.2076604
3.1429318
3.0500997
2.8812328
2.5623436
2.0601951
1.4581936
0.93065615
0.62519735
0.63506521
1.182346
1.0284104
0.88154808
0.76397249
0.72291105
0.7130265
0.75521523
0.90012902
1.2803932
1.8282607
2.3643005
2.789953
3.0820497
3.2473377
3.3064671
3.2872547
3.2199969
3.1314698
3.0347344
2.913822
2.7111114
2.3464033
1.7997276
1.1900574
0.72202775
0.51989589
0.65755847
1.1823471
1.0230046
0.87528041
0.76144912
0.72218221
0.71163702
0.74440526
0.85790328
1.1940278
1.7358972
2.3003459
2.7640341
3.0917059
3.2840579
3.3579187
3.3386935
3.2562302
3.1408086
3.0172695
2.8945184
2.7494126
2.5145358
2.106124
1.5251973
0.93533019
0.5606559
0.46772592
0.760821
1.1813038
1.0162776
0.86789659
0.7582572
0.72147972
0.71124092
0.73737996
0.82524939
1.1143999
1.6389641
2.2263271
2.7276751
3.0935789
3.3179612
3.4134666
3.4025649
3.3134429
3.1767151
3.0216688
2.8704379
2.7271814
2.5611176
2.2954033
1.8467581
1.2471465
0.71315338
0.45350441
0.46912227
0.9613774
1.1795057
1.0086273
0.85972575
0.75452415
0.72071571
0.71149784
0.73313619
0.80106347
1.0438164
1.5400882
2.1430144
2.6800666
3.0853857
3.3453282
3.468085
3.4728966
3.3857085
3.2361747
3.0546253
2.8684828
2.6964944
2.537575
2.3530038
2.0575435
1.574272
0.9792008
0.53983513
0.39888239
0.53118617
1.1692865
1.1771625
1.0003857
0.85105262
0.75037575
0.71983609
0.71216576
0.73091961
0.78399684
0.98375571
1.4422714
2.051869
2.6212489
3.0658108
3.3634107
3.5175583
3.5441412
3.466557
3.3128668
3.1131036
2.8963543
2.6873825
2.5009623
2.3303541
2.1288203
1.80469
1.2957477
0.7386028
0.42223971
0.39475156
0.63378453
1.3019671
1.1744152
0.99181753
0.84210631
0.74590992
0.71878244
0.71302287
0.73010779
0.77260218
0.93471358
1.3485839
1.9548719
2.5519489
3.0344319
3.3705173
3.558761
3.6116788
3.5500325
3.3999453
3.1904887
2.951063
2.7086191
2.484556
2.289187
2.1097897
1.8918461
1.5405044
1.0204248
0.54336353
0.35754973
0.43309105
0.72238674
1.3912986
1.1713493
0.98312965
0.83306982
0.74119807
0.71749287
0.71385718
0.73015937
0.76544373
0.896205
1.2617993
1.8543696
2.4734021
2.9915391
3.3659116
3.5897195
3.6720887
3.6312066
3.4911641
3.2796813
3.0258001
2.7573218
2.4982517
2.2660279
2.0661104
1.8795479
1.644739
1.2687367
0.76210434
0.4036914
0.34320137
0.47974816
0.80230113
1.448723
1.1680097
0.97447831
0.82408774
0.73629633
0.71591684
0.714487
0.7306222
0.76121724
0.86696955
1.1840256
1.7529188
2.3872137
2.9379446
3.3496099
3.6094809
3.7231912
3.7064413
3.5813839
3.3742681
3.1133393
2.8265948
2.539341
2.2719382
2.0373979
1.836009
1.6424415
1.3893854
0.99420871
0.53988923
0.33350509
0.35300541
0.53112213
0.86860611
1.4855946
1.1644216
0.96598058
0.81527552
0.73125619
0.71402814
0.71477947
0.73115311
0.75884913
0.84532441
1.1164519
1.6530964
2.295245
2.8748287
3.3221695
3.6178833
3.7638895
3.7734177
3.6668248
3.4689976
3.2072264
2.909215
2.6009553
2.3044718
2.0359195
1.8035492
1.602202
1.4001234
1.1269945
0.72613942
0.40108737
0.30794772
0.37385324
0.5803164
0.92125072
1.5098096
1.1606035
0.95772118
0.80672578
0.7261318
0.71182961
0.71465688
0.73152072
0.75753637
0.82952678
1.0593073
1.5572813
2.1995028
2.8036236
3.2845172
3.6153201
3.7939095
3.8309533
3.7450864
3.5600186
3.3021983
2.9988187
2.6760134
2.3569125
2.059616
1.7956729
1.5683366
1.3666738
1.1528888
0.85891768
0.52726478
0.33414475
0.29955909
0.39944726
0.62377745
0.96227233
1.5262133
1.1565449
0.94975875
0.79850853
0.72097921
0.70935018
0.71409199
0.73159046
0.75672666
0.81802448
1.0120312
1.4674534
2.1020243
2.7259149
3.2378193
3.6025464
3.8135369
3.8787126
3.8149484
3.6448981
3.3943974
3.0902332
2.7583766
2.4224656
2.1020686
1.8108811
1.5555905
1.3341968
1.1297328
0.89944387
0.64013931
0.417766
0.29361745
0.30117868
0.4257922
0.66036764
0.99407926
1.5376749
1.1521453
0.94213149
0.79067693
0.71585363
0.70663628
0.7130973
0.73130206
0.75606762
0.80956641
0.97355431
1.3850546
2.0047618
2.6433512
3.1833832
3.5805386
3.8234043
3.9169168
3.8760548
3.7224152
3.4813974
3.1796554
2.8430676
2.4953547
2.1569099
1.8432188
1.5632466
1.3185994
1.1017462
0.88927221
0.68659716
0.50806001
0.34184885
0.27021141
0.30840121
0.45046387
0.69033796
1.0187773
1.5459048
1.1471784
0.93484456
0.78327346
0.710805
0.70374447
0.7117129
0.73064707
0.75535127
0.80320772
0.94257437
1.310937
1.9094867
2.5575642
3.1225792
3.5503951
3.8243417
3.9461125
3.9285974
3.792225
3.5620021
3.2646937
2.9263968
2.5709076
2.2188617
1.8868782
1.5860041
1.3201968
1.0857381
0.86882216
0.68678819
0.55230316
0.40817632
0.29070744
0.25785064
0.3182595
0.47227977
0.71452626
1.0380289
1.5519487
1.1435877
0.92773976
0.77631616
0.70587026
0.70073503
0.70999561
0.72965011
0.75446792
0.79826611
0.91776541
1.2453951
1.8177173
2.4701043
3.0567773
3.513266
3.8172775
3.9670155
3.9730688
3.8545193
3.6358988
3.3441889
3.0060256
2.6456074
2.2836692
1.9371997
1.6187287
1.3345458
1.0832944
0.85515879
0.67400488
0.5567705
0.44642382
0.33492437
0.25716132
0.25240885
0.32884521
0.49088998
0.73390357
1.0530998
1.5564612
1.143039
0.92290406
0.76968541
0.7010722
0.69766754
0.70800756
0.7283545
0.75337204
0.79426471
0.89790557
1.1882556
1.7306708
2.3823895
2.9872988
3.4703036
3.8031771
3.9804141
4.0100994
3.9097633
3.7032999
3.417869
3.0808296
2.7171813
2.3480558
1.9904587
1.6574686
1.3572717
1.0910357
0.85121366
0.66425094
0.54825381
0.45253053
0.36484116
0.28276401
0.2356871
0.25110653
0.3390367
0.50641145
0.7493738
1.0649427
1.5598801
1.1424884
0.92230421
0.76543112
0.69641629
0.69459475
0.70580688
0.7268115
0.7520572
0.79087925
0.88193863
1.1389983
1.6492427
2.2956749
2.9153824
3.4226264
3.7830028
3.9871146
4.0403638
3.9585283
3.7646651
3.4859783
3.1505726
2.7845237
2.4098245
2.0436967
1.699131
1.3851746
1.1053954
0.85479556
0.66123701
0.54121531
0.44654498
0.37035883
0.30364426
0.24652331
0.22226242
0.25211135
0.34826285
0.51917428
0.76170785
1.0742817
1.5625027
1.1419411
0.92160165
0.76460617
0.69356293
0.69155021
0.70345082
0.72507458
0.75053768
0.78789449
0.86899233
1.096885
1.5740064
2.2110297
2.8421568
3.3712934
3.7576882
3.9879108
4.0645339
4.001401
3.8205289
3.5489855
3.2155309
2.8474151
2.4678645
2.0948161
1.7411699
1.4158699
1.1239017
0.86312402
0.66367828
0.53950363
0.44124015
0.36529891
0.30708609
0.25894625
0.22178947
0.21407499
0.25426033
0.35630285
0.52957476
0.77153893
1.0816678
1.5645323
1.1414003
0.92081295
0.76374444
0.6928095
0.6896952
0.70101917
0.72319628
0.74883536
0.7851704
0.85836987
1.0610703
1.5052343
2.1293285
2.7686272
3.3172879
3.7281223
3.9835676
4.0832567
4.0389433
3.8714129
3.607405
3.2761882
2.906152
2.5219375
2.1426721
1.7816291
1.4473299
1.1448971
0.87436159
0.66930212
0.54223177
0.44049767
0.36063638
0.30177545
0.2596414
0.22703406
0.20508933
0.20922276
0.25685005
0.36313783
0.5380012
0.77937647
1.0875228
1.5661139
1.1408641
0.91995334
0.76283977
0.69208344
0.68907136
0.69953931
0.72123656
0.74698052
0.78261773
0.84952604
1.0306917
1.4429407
2.0512497
2.6956635
3.2615032
3.6951356
3.9748107
4.0971456
4.0716786
3.9177931
3.6617124
3.3330496
2.9612308
2.5723354
2.1869617
1.8193099
1.4778232
1.1669688
0.88754272
0.6765959
0.54727833
0.44371539
0.3601996
0.29685264
0.2534396
0.22496609
0.20461658
0.19386183
0.20645335
0.25947964
0.36885222
0.54480232
0.78562712
1.0921727
1.5673531
1.1403287
0.91903678
0.76190237
0.69138028
0.68847521
0.69898557
0.72002758
0.74504185
0.78018633
0.84204003
1.0049287
1.3869314
1.9772844
2.6239982
3.204736
3.6594934
3.9623207
4.1067771
4.1000903
3.9600936
3.7123185
3.3865587
3.0131535
2.6195592
2.2279341
1.8537853
1.5061131
1.1887311
0.90193988
0.68503524
0.55318623
0.44877775
0.36362023
0.29600178
0.24771006
0.21769759
0.20014954
0.18900395
0.18630685
0.20495952
0.26193851
0.3735748
0.5502777
0.79061439
1.0958709
1.5683282
1.139793
0.918076
0.7609361
0.69069581
0.68789637
0.69847653
0.71952372
0.74386467
0.77787729
0.83560048
0.98303844
1.3368592
1.9077525
2.5542295
3.1476814
3.6218883
3.9467274
4.1126888
4.124624
3.9986913
3.7595705
3.4370773
3.0623402
2.6641078
2.2660759
1.8852062
1.5316038
1.2089799
0.91666301
0.69444203
0.55964583
0.45411398
0.36874297
0.29907858
0.24588993
0.21098108
0.19193148
0.18263243
0.17814756
0.18119887
0.20422965
0.26413107
0.377446
0.55467812
0.79459534
1.0988157
1.5690981
1.1392593
0.91708238
0.75994282
0.69002666
0.6873333
0.6980026
0.71905742
0.74334989
0.77655411
0.830029
0.96438597
1.2922744
1.8428192
2.4868303
3.0909366
3.5829388
3.9286075
4.1153789
4.14569
4.033924
3.8037636
3.4848953
3.1091163
2.7063854
2.3018818
1.9140168
1.5542771
1.226928
0.9306988
0.70441565
0.56681779
0.45950239
0.37379896
0.30393978
0.24805507
0.20791071
0.18430892
0.17369886
0.17034206
0.17056818
0.17771911
0.20394445
0.26602813
0.38060067
0.55821045
0.79777421
1.1011628
1.5697076
1.1373282
0.91607043
0.7589321
0.68937034
0.68678246
0.6975566
0.71861915
0.74288881
0.77593827
0.82702147
0.94851193
1.2526901
1.7825106
2.4221531
3.0350056
3.5431896
3.9084821
4.1153049
4.1636658
4.0660957
3.8451514
3.5302465
3.1537283
2.7466881
2.3357457
1.9407086
1.5744726
1.2423058
0.94314968
0.71427286
0.57459975
0.4653682
0.37856245
0.30863053
0.25218391
0.20875989
0.17997049
0.1653719
0.16092679
0.16171196
0.16523463
0.17532579
0.20390764
0.26763648
0.3831604
0.56104349
0.80031344
1.103035
1.5701911
1.1335968
0.9127578
0.75792895
0.68872555
0.68624027
0.69713284
0.71820492
0.74246905
0.77539245
0.82566816
0.93990971
1.2177537
1.726758
2.3604221
2.980298
3.503117
3.8868194
4.1128836
4.1788972
4.0954816
3.8839556
3.5733241
3.1963651
2.785227
2.3679463
1.9656832
1.5926402
1.2552784
0.95345119
0.72323105
0.58252511
0.47183917
0.3836552
0.31286932
0.25622387
0.21174037
0.17934488
0.15992021
0.15210983
0.15199848
0.15561611
0.16144247
0.17366156
0.20400062
0.26898073
0.38523068
0.56331426
0.8023423
1.1045291
1.5705754
1.1296628
0.90738246
0.75472442
0.68809455
0.68570703
0.69672675
0.71781011
0.74208218
0.77489854
0.82451848
0.93608823
1.1979593
1.6756354
2.3017616
2.9271071
3.4631233
3.8640383
4.1084939
4.1916998
4.1223315
3.9203725
3.6142914
3.2371766
2.8221576
2.3986736
1.9891812
1.6091708
1.2662432
0.96147189
0.73060034
0.58993772
0.47861148
0.3893681
0.31740845
0.25982075
0.21482085
0.18094651
0.15788118
0.14576741
0.14286576
0.14573069
0.15127039
0.15871475
0.17249046
0.20415328
0.27009273
0.38690105
0.56513357
0.80396378
1.1057222
1.5708812
1.1257717
0.90302365
0.7495397
0.68610636
0.68518919
0.69633473
0.7174305
0.74172168
0.77444658
0.82351788
0.93289091
1.1890697
1.6454179
2.2464947
2.8756187
3.4235052
3.8405012
4.1024809
4.2023627
4.1468718
3.9545768
3.6532886
3.2762836
2.8576067
2.4280412
2.0113679
1.624361
1.2756074
0.96743752
0.73598542
0.59611521
0.48516672
0.39549286
0.32264579
0.26379289
0.2175779
0.18286677
0.1580862
0.14250925
0.13584947
0.13640508
0.14129311
0.14813789
0.15672889
0.17165608
0.20432545
0.27100559
0.38824628
0.56659065
0.80525993
1.1066752
1.5711248
1.1220049
0.89935835
0.74512444
0.68302415
0.68355205
0.69595395
0.71706387
0.74138234
0.77402833
0.82263113
0.93015138
1.18164
1.6314788
2.2128314
2.8262262
3.3844466
3.8164766
4.0951474
4.2111527
4.1693105
3.9867242
3.6904384
3.3137895
2.8916815
2.4561445
2.0323598
1.6383826
1.2836846
0.97175702
0.73940479
0.60048583
0.4908088
0.40162248
0.3284149
0.2686078
0.22083451
0.18462125
0.15880475
0.14145765
0.13160968
0.12889336
0.13185432
0.13811674
0.14585312
0.15526584
0.17105409
0.20449516
0.27175071
0.38932809
0.56775735
0.80629614
1.1074367
1.5713191
1.1184006
0.89619776
0.74124427
0.68044821
0.68102087
0.69473042
0.71670992
0.74105983
0.77363717
0.82183334
0.92775864
1.1753006
1.6197916
2.1968439
2.7955323
3.3463251
3.7921201
4.0867139
4.2183057
4.1898408
4.016957
3.7258485
3.349786
2.9244523
2.4830673
2.0522385
1.6513322
1.2906583
0.97481242
0.74118067
0.60289107
0.49482668
0.40710749
0.33437675
0.27412452
0.22511141
0.18698341
0.15949488
0.14106909
0.1295157
0.12389475
0.12398185
0.12861392
0.13581556
0.14416698
0.15417569
0.17061436
0.20465137
0.27235624
0.39019711
0.56869135
0.80712469
1.1080453
1.571474
1.1149786
0.89342233
0.73775973
0.67822363
0.6787972
0.69283624
0.71557606
0.74074969
0.77326828
0.82110594
0.92563354
1.1697912
1.6098147
2.1834341
2.7805279
3.3222612
3.7677494
4.0772909
4.2239865
4.2086341
4.0454079
3.7596158
3.384354
2.9559921
2.5088931
2.0710763
1.663272
1.2966199
0.97683204
0.74169394
0.60359334
0.4968834
0.41112219
0.33991164
0.28003961
0.23031979
0.19052534
0.16083802
0.14074154
0.12819041
0.12097981
0.11840848
0.12047824
0.12627802
0.13412788
0.1429086
0.15335487
0.17028934
0.20478941
0.27284667
0.39089459
0.56943898
0.80778728
1.1085317
1.5715977
1.1117514
0.89094546
0.73459321
0.67626014
0.67679592
0.69114806
0.71380808
0.7397515
0.77291759
0.82043474
0.923718
1.1649219
1.6011521
2.1720007
2.7679643
3.3101399
3.7521585
4.0671157
4.2282554
4.2258006
4.0721933
3.7918302
3.4175643
2.9863678
2.5336909
2.0889435
1.6742579
1.3016178
0.97792166
0.74123385
0.60300067
0.49716487
0.41316409
0.34408687
0.28572221
0.236189
0.19526615
0.16345898
0.14103639
0.12696712
0.1189061
0.11486562
0.11447247
0.11794873
0.12457271
0.13287544
0.14195968
0.15273099
0.17004642
0.20490819
0.27324285
0.39145403
0.57003733
0.80831712
1.1089207
1.5716965
1.10873
0.88870128
0.73169055
0.67449496
0.67495579
0.68961115
0.71218729
0.73820944
0.77180892
0.81980705
0.9219685
1.1605526
1.5935078
2.1620966
2.7572829
3.3000108
3.7440196
4.0605304
4.2312604
4.2413516
4.0973767
3.8225697
3.4494839
3.0156411
2.5575235
2.1059125
1.6843493
1.3056946
0.97811648
0.73993899
0.60145236
0.49612206
0.41336581
0.34625665
0.29011447
0.24203411
0.20099723
0.16754403
0.14262744
0.12627486
0.11694019
0.11221424
0.11045567
0.11161728
0.11609945
0.12331237
0.13193574
0.14123744
0.15225281
0.16986303
0.20500857
0.27356226
0.39190251
0.57051615
0.8087409
1.1092317
1.5717754
1.1059263
0.88663887
0.72901251
0.6728807
0.67323749
0.68818137
0.71067767
0.73678407
0.77014688
0.81788941
0.92034851
1.1565775
1.5866602
2.1533826
2.7480656
3.2914246
3.7372156
4.0568659
4.2332374
4.2553462
4.1209286
3.8518663
3.48017
3.04387
2.5804508
2.1220547
1.693608
1.3089026
0.97743087
0.73784078
0.59910959
0.494145
0.41223286
0.34652246
0.29243894
0.24663774
0.20695418
0.17299483
0.14590674
0.12682558
0.11538009
0.10965616
0.10736614
0.10724384
0.10952144
0.11473088
0.12237013
0.13122362
0.1406832
0.15188364
0.16972331
0.20509228
0.27381936
0.39226186
0.57089931
0.80907987
1.1094805
1.5718385
1.1033523
0.88471762
0.7265316
0.67138037
0.67161034
0.68682362
0.70923909
0.73544693
0.76861482
0.81518143
0.91551803
1.1529076
1.58044
2.1455997
2.7399899
3.2840452
3.7314517
4.0537654
4.2340471
4.2646176
4.1428286
3.879665
3.5096402
3.0711057
2.6025308
2.1374404
1.7020997
1.3113068
0.97588319
0.73492132
0.59599968
0.49142146
0.41020488
0.34545043
0.29278915
0.24909066
0.21172617
0.17896917
0.15093379
0.12922545
0.11496226
0.10736951
0.10434629
0.10382393
0.10487883
0.10796487
0.11370641
0.12165831
0.1306792
0.14025484
0.15159686
0.16961601
0.20516144
0.27402603
0.39254973
0.5712059
0.80935095
1.1096794
1.5719375
1.101019
0.8829039
0.72422912
0.66996467
0.67004936
0.68550833
0.70784202
0.73416171
0.76717954
0.8127865
0.90879776
1.1420961
1.5747071
2.1385524
2.7328104
3.2776087
3.7265078
4.0511108
4.2346212
4.2694449
4.1574657
3.9058802
3.5378317
3.0973661
2.6238168
2.1521402
1.7098941
1.3129804
0.97350514
0.73115412
0.59208852
0.48798332
0.40749395
0.34353858
0.29180664
0.24949444
0.214263
0.18384398
0.15681423
0.13372172
0.11648883
0.10610298
0.10147044
0.10044774
0.10120952
0.10311796
0.10679605
0.11293155
0.12111556
0.13025977
0.13992176
0.15137289
0.16953303
0.20521817
0.27419202
0.39278024
0.57145121
0.80956782
1.1099876
1.5721185
1.0989331
0.88116829
0.72209192
0.66861015
0.66853456
0.68420976
0.706461
0.73289662
0.76579555
0.81061505
0.9029333
1.1268444
1.5579419
2.1320784
2.726339
3.2719135
3.7222076
4.0488172
4.2350221
4.2732963
4.1654492
3.9235306
3.5646178
3.1225959
2.6443349
2.166221
1.7170643
1.3140036
0.97033723
0.72652604
0.58733009
0.48378928
0.40413535
0.34101601
0.29004542
0.24857174
0.21467757
0.1864171
0.16171664
0.13940607
0.12040113
0.10682249
0.099491062
0.09710302
0.097559141
0.099259464
0.101793
0.10590961
0.11234009
0.12069836
0.1299345
0.13966142
0.15119722
0.16946847
0.20526444
0.27432521
0.39296482
0.57164753
0.80990514
1.1105483
1.5723966
1.0970937
0.87948281
0.72010957
0.66729828
0.6670507
0.68290573
0.70507323
0.73162289
0.76442668
0.80858274
0.89766645
1.1133585
1.5338694
2.1132998
2.7204209
3.2668055
3.7184154
4.0468119
4.2353047
4.2763985
4.17186
3.9334967
3.582748
3.1466482
2.6640461
2.1797281
1.7236843
1.3144612
0.96642949
0.72104312
0.58169472
0.47877924
0.40007995
0.33791839
0.28774553
0.24692522
0.21376937
0.18680594
0.16428157
0.14426371
0.12581404
0.11014944
0.099502775
0.094541274
0.09384497
0.095397781
0.097790055
0.10078638
0.10523137
0.111885
0.12037544
0.12968084
0.13945708
0.15105891
0.16941799
0.20530204
0.27443203
0.39311259
0.5719539
0.81051982
1.1114123
1.5728175
1.0954889
0.87781887
0.71827142
0.66601465
0.66558737
0.68157792
0.70365902
0.73031394
0.76304128
0.80662256
0.89278036
1.1010448
1.5121156
2.0860906
2.703402
3.2621582
3.7150276
4.045037
4.2355033
4.2789354
4.1770549
3.9415039
3.5933368
3.1629394
2.6828054
2.1926511
1.7298144
1.3144386
0.9618428
0.71473148
0.57518113
0.47290827
0.39525026
0.3341869
0.28494181
0.2448039
0.21218008
0.18587424
0.16461902
0.14678225
0.13056746
0.11524901
0.10228128
0.093954499
0.090815449
0.091393688
0.093764953
0.09667241
0.10001507
0.10470845
0.11153245
0.120124
0.12948211
0.13929611
0.15094969
0.16937836
0.20533247
0.27451766
0.39334426
0.57251324
0.81146757
1.1127245
1.5734395
1.094093
0.87614708
0.71656347
0.6647489
0.66413886
0.68021287
0.70220271
0.72894578
0.76161071
0.8046799
0.88810895
1.0894218
1.4917785
2.0610057
2.6787649
3.248858
3.7119572
4.0434484
4.2356427
4.2810416
4.1813215
3.9479916
3.6018402
3.1728063
2.6954102
2.2048606
1.7354719
1.3140111
0.95664599
0.70763765
0.56781421
0.46616152
0.38957675
0.32972158
0.28156751
0.24224374
0.21016517
0.18429086
0.1636401
0.14705257
0.13301012
0.11985726
0.10705643
0.096243507
0.089734841
0.087991996
0.089533508
0.09252036
0.095815203
0.099419658
0.10430265
0.11125775
0.11992727
0.1293258
0.13916893
0.15086323
0.16934714
0.20535707
0.27465318
0.3937684
0.5733764
0.81290828
1.1146747
1.5743273
1.0928663
0.87443697
0.71496715
0.66349441
0.66270386
0.6788028
0.70069424
0.72749831
0.76010957
0.80270969
0.88352574
1.0781083
1.4721053
2.0370592
2.655646
3.2297838
3.7031177
4.0420079
4.2357415
4.2828194
4.1848764
3.9533149
3.6087235
3.1807197
2.7034111
2.2128375
1.7405661
1.313219
0.95090756
0.69982791
0.55963698
0.45854918
0.38302062
0.32442057
0.2774987
0.23917533
0.20776562
0.18231398
0.16202825
0.14601565
0.13320516
0.12220443
0.11149763
0.10070628
0.091601726
0.086510229
0.085837094
0.088110428
0.091564096
0.095152962
0.098957119
0.10398599
0.11104267
0.11977269
0.12920246
0.13906821
0.15079465
0.16932247
0.20539805
0.27490272
0.39442397
0.57469028
0.81505206
1.1174813
1.575534
1.091756
0.87265782
0.71345854
0.66224792
0.66128493
0.67734657
0.69913
0.72595734
0.7585172
0.80067527
0.87893724
1.0668046
1.4524669
2.0133774
2.6331711
3.2115596
3.6906736
4.0376529
4.2358108
4.2843457
4.1878848
3.9577445
3.6143627
3.1871168
2.7098257
2.2182849
1.7434253
1.3120034
0.94467658
0.69138196
0.55070888
0.45009078
0.37556922
0.31821501
0.27259534
0.23545283
0.20491627
0.17999357
0.16004006
0.14435811
0.13210842
0.12232177
0.11373947
0.1049748
0.095778597
0.088021736
0.084032554
0.084181036
0.087013764
0.09082424
0.094638164
0.098595878
0.10373776
0.1108736
0.11965082
0.12910488
0.1389883
0.15074016
0.16928725
0.20547585
0.27528989
0.3954243
0.57664919
0.81814311
1.1213409
1.5770708
1.0906984
0.87077852
0.71200871
0.66100866
0.65988707
0.67584979
0.69751381
0.72431636
0.75681966
0.79854893
0.87428074
1.0552849
1.4323376
1.9891926
2.6105064
3.1935115
3.6785042
4.0317534
4.2355308
4.2856793
4.1904727
3.9614887
3.6190494
3.1923529
2.7150135
2.2226491
1.7458975
1.3102738
0.93793724
0.6823811
0.54110197
0.44081059
0.36721159
0.31107149
0.26675441
0.23089552
0.20145428
0.17727412
0.15773638
0.14233095
0.13040073
0.1211685
0.1137808
0.10710968
0.099880544
0.09194619
0.085249762
0.082118223
0.082900211
0.086163219
0.090248408
0.094235886
0.098312491
0.10354242
0.11074024
0.11955448
0.12902751
0.13892479
0.15065892
0.16922676
0.20559896
0.27588412
0.39692124
0.57948178
0.82240485
1.1263324
1.5788748
1.0896215
0.86876882
0.71058478
0.65977706
0.65851608
0.67432395
0.69585666
0.72257823
0.75501165
0.79631301
0.86952481
1.043402
1.4112905
1.9638241
2.5868895
3.1749451
3.6661699
4.0257256
4.2353772
4.2887911
4.1927381
3.9647055
3.6230077
3.1967037
2.7192674
2.2261881
1.7478929
1.3099156
0.93202631
0.67295889
0.53088876
0.43074183
0.35792628
0.30295801
0.25992574
0.22536266
0.19715968
0.173982
0.15507449
0.14000525
0.12832414
0.11941369
0.11257674
0.10707965
0.10191297
0.095895016
0.088957059
0.083094431
0.080631344
0.081903974
0.085499926
0.089797986
0.093920163
0.09808936
0.10338823
0.11063478
0.11947814
0.12896607
0.13882966
0.15051507
0.16913749
0.20579352
0.27678105
0.39909742
0.58340276
0.82793504
1.1323049
1.5808028
1.0884477
0.86659904
0.70915165
0.65855335
0.65717667
0.67278435
0.69417525
0.72075582
0.75309813
0.79396118
0.86466846
1.0310946
1.3890156
1.9366792
2.561615
3.1552029
3.6531665
4.0193647
4.2348918
4.2931344
4.1984124
3.967522
3.6264085
3.2003839
2.7228168
2.2291109
1.7495471
1.3096446
0.92894013
0.66560067
0.52018437
0.41991951
0.34769474
0.29381666
0.25206874
0.21878892
0.19185364
0.16986306
0.15187547
0.13735209
0.12595808
0.11728825
0.11078124
0.10583131
0.10181802
0.097833362
0.092769881
0.086618363
0.081411686
0.079470936
0.081125282
0.084980257
0.089444183
0.093671478
0.09791314
0.1032662
0.11055118
0.11941754
0.12887418
0.13866076
0.15029805
0.16901112
0.20609972
0.27810132
0.40213231
0.58851732
0.83457893
1.1388277
1.5826692
1.087094
0.86423885
0.70767378
0.65733637
0.65587078
0.67124725
0.69248935
0.71887082
0.75109501
0.79149956
0.85973926
1.018393
1.365348
1.9072815
2.5340386
3.1336544
3.6389982
4.0123768
4.2340869
4.2971383
4.2057674
3.9748917
3.6293937
3.2035571
2.7258403
2.2315807
1.7509641
1.3094901
0.92648073
0.66089059
0.51174293
0.40841885
0.33650482
0.28358075
0.24310251
0.21113209
0.18545662
0.16470425
0.14785816
0.13419148
0.12328675
0.11487752
0.10861305
0.10400237
0.10053186
0.097680863
0.094624543
0.090313392
0.084782874
0.080092899
0.078561496
0.080514081
0.084571528
0.089165315
0.093475014
0.097773623
0.10316942
0.11048481
0.11932704
0.1287113
0.13840567
0.14997933
0.16884407
0.20657676
0.27997445
0.40612996
0.59470078
0.84186787
1.145284
1.5843111
1.0854722
0.86165696
0.706116
0.6561229
0.65459653
0.66972694
0.69081851
0.71695076
0.74902782
0.78894692
0.85478798
1.0054191
1.3402968
1.8753157
2.5036076
3.1097006
3.6231706
4.0044565
4.2328788
4.3010017
4.2129404
3.983724
3.6376614
3.2063674
2.728477
2.2337271
1.7522265
1.3094627
0.92458623
0.65713638
0.50632
0.39920204
0.32438615
0.27219533
0.23291688
0.20229591
0.17792641
0.15841512
0.14278248
0.1302227
0.12013183
0.11217729
0.10616124
0.10179938
0.098676245
0.096362832
0.094422067
0.092095368
0.08837776
0.083338106
0.07905583
0.077846157
0.080032659
0.084249025
0.088944885
0.093319431
0.097662942
0.10309254
0.11038554
0.11916689
0.12846585
0.13803029
0.14953014
0.16864788
0.20730426
0.2824971
0.41102081
0.60153219
0.84911544
1.1510823
1.5856377
1.0834865
0.85881802
0.7044443
0.65490766
0.65334785
0.66823335
0.68917864
0.71502498
0.7469284
0.78633325
0.84988037
0.9923724
1.3140635
1.8406809
2.4699127
3.0828027
3.6051936
3.9952799
4.2311598
4.304833
4.2202758
3.9926439
3.6465789
3.2148801
2.7308609
2.2356507
1.7534008
1.3095676
0.9231777
0.65416921
0.502
0.39320602
0.31449913
0.25964523
0.22141621
0.19212638
0.16915087
0.1509544
0.13655281
0.12518689
0.11617976
0.10901254
0.10343129
0.099313378
0.096446163
0.094486277
0.093077463
0.091850212
0.090097749
0.086849033
0.082197887
0.078237876
0.077281763
0.079652357
0.083993889
0.088770244
0.093195979
0.097574995
0.10297718
0.11020967
0.11892594
0.12810592
0.13749956
0.14893569
0.16846494
0.20837065
0.28566587
0.41649557
0.60837264
0.8556517
1.1558498
1.5866369
1.0810284
0.85567933
0.70262587
0.65368352
0.65211473
0.66677064
0.68757954
0.71311994
0.74483042
0.78369629
0.84508762
0.97950228
1.2870385
1.8035375
2.4327506
3.0525306
3.5846039
3.9845043
4.2287917
4.308713
4.2280429
4.0020947
3.6559017
3.2227664
2.7391973
2.2374767
1.7545431
1.3098122
0.92218459
0.65184123
0.49858646
0.38839785
0.30797589
0.24924698
0.20854004
0.18048467
0.15892539
0.14219069
0.12913218
0.11898981
0.11116063
0.1050623
0.10025225
0.096557728
0.093933428
0.092235711
0.091184608
0.090483625
0.089816623
0.088516893
0.085639162
0.081295935
0.077591103
0.076835318
0.079351211
0.083791609
0.088631621
0.093097867
0.097442702
0.10277232
0.10994485
0.11857355
0.12759992
0.13679323
0.14822006
0.16838088
0.20983676
0.2893154
0.42204991
0.6145812
0.86104484
1.1594899
1.5873497
1.077968
0.85218517
0.7006274
0.65244207
0.65088373
0.66533685
0.68602331
0.71125544
0.74276377
0.78107635
0.84047627
0.96707142
1.2597631
1.7643308
2.3921891
3.0186261
3.5610049
3.9717823
4.2256001
4.3126864
4.236486
4.012464
3.6661221
3.2313616
2.7453491
2.2454568
1.7557664
1.3102104
0.92155327
0.65002378
0.49590882
0.38457721
0.30270902
0.24229566
0.19772663
0.16727269
0.14705924
0.13186234
0.1203707
0.11160402
0.10498709
0.1000519
0.096299863
0.093365747
0.091157669
0.089702918
0.088918812
0.088578119
0.088431967
0.088205776
0.087263654
0.084679888
0.080581037
0.077078597
0.076481421
0.079112278
0.083630958
0.088521418
0.09295019
0.097207405
0.10246339
0.10955708
0.11808028
0.12693281