/*--------------------------------*- C++ -*----------------------------------*\
| =========                 |                                                 |
| \\      /  F ield         | OpenFOAM: The Open Source CFD Toolbox           |
|  \\    /   O peration     | Version:  2206                                  |
|   \\  /    A nd           | Website:  www.openfoam.com                      |
|    \\/     M anipulation  |                                                 |
\*---------------------------------------------------------------------------*/
FoamFile
{
    version     2.0;
    format      ascii;
    arch        "LSB;label=32;scalar=64";
    class       volScalarField;
    location    "0.0452892";
    object      omega;
}
// * * * * * * * * * * * * * * * * * * * * * * * * * * * * * * * * * * * * * //

dimensions      [0 0 -1 0 0 0 0];

internalField   nonuniform List<scalar> 
19794
(
2.8203745
3.1137952
2.2480676
3.1305568
2.4990082
1.8440996
3.0922149
2.5475669
2.0376518
1.6549091
2.9396479
2.5545673
2.1165556
1.8064934
1.6083501
2.7429976
2.4889544
2.1934808
1.9039363
1.7659109
1.6212463
2.545017
2.4011161
2.2385985
2.0229611
1.892919
1.8182488
1.6641237
2.3837722
2.3166634
2.2666491
2.1293498
2.055372
1.9831998
1.9322755
1.7319377
2.2760446
2.2532472
2.2792684
2.2121743
2.2095502
2.1848247
2.1580153
2.0978497
1.8250769
2.2259881
2.2154177
2.2814699
2.2620995
2.3286313
2.3705639
2.4190346
2.3979816
2.3100497
1.9439272
2.2293295
2.2033272
2.2776523
2.2829037
2.3979575
2.5075166
2.6510939
2.7274368
2.695271
2.5639079
2.0885022
2.276296
2.2155108
2.272448
2.2827629
2.4234505
2.5800013
2.8168908
3.0101405
3.1034114
3.043299
2.858987
2.2605485
2.3536542
2.2493207
2.2698796
2.2693381
2.4184053
2.5974363
2.9009718
3.2069933
3.4451873
3.5388735
3.4437788
3.2010823
2.4647582
2.4473142
2.2995149
2.2731201
2.2490126
2.3937917
2.5778153
2.9164457
3.305012
3.6805701
3.9458423
4.035933
3.905306
3.6017714
2.7090596
2.545621
2.3588045
2.2826627
2.2269688
2.3575022
2.5353742
2.886135
3.3213784
3.8004921
4.2243973
4.5136071
4.6034991
4.4424128
4.0782779
3.0049667
2.6411531
2.4202449
2.296313
2.206085
2.3155988
2.4795244
2.828259
3.2830166
3.8262324
4.3709315
4.8393881
5.156355
5.256504
5.0759531
4.6547191
3.3687423
2.7303032
2.4791138
2.3110493
2.186672
2.2721662
2.4170781
2.7544945
3.211717
3.7880038
4.4112017
5.017106
5.532161
5.8876697
6.0163777
5.8348866
5.3649863
3.8237594
2.8118766
2.5331656
2.324887
2.167934
2.228961
2.3530707
2.6725797
3.1216117
3.7105786
4.3781933
5.0775321
5.744837
6.3146584
6.727086
6.9127
6.7596035
6.2577679
4.4045519
2.8857639
2.5817897
2.3374104
2.1497905
2.1865189
2.2903157
2.5880933
3.0216582
3.6106788
4.2990215
5.0557143
5.8309324
6.5651871
7.2041211
7.7013019
7.9861633
7.9074037
7.4049582
5.1634784
2.952006
2.625004
2.3491033
2.1334338
2.1458619
2.2301231
2.5044951
2.9179041
3.4990587
4.192817
4.9800875
5.8266427
6.6826966
7.4942593
8.2238877
8.8463802
9.2933429
9.3614328
8.9159198
6.1812645
3.0103424
2.6627367
2.3604297
2.1205464
2.1091282
2.1739382
2.4238155
2.8140012
3.3826858
4.0724977
4.8716469
5.7603238
6.7033528
7.6494261
8.5537457
9.404919
10.211227
10.914277
11.245534
10.962039
7.5814792
3.0602314
2.6945098
2.3712476
2.1122343
2.0787497
2.1240838
2.3480618
2.7121588
3.2654646
3.9465731
4.7455782
5.6539682
6.6535706
7.7042291
8.7535306
9.772076
10.788176
11.862951
12.964655
13.749503
13.818265
9.5406183
3.1011715
2.7195248
2.3806869
2.1084222
2.0562281
2.0830153
2.2798632
2.6145172
3.1494333
3.819775
4.6124227
5.524906
6.5550274
7.6805782
8.8542657
10.024317
11.186185
12.428162
13.895168
15.615838
17.172667
17.925013
12.256518
3.1330641
2.7370214
2.3874384
2.1078792
2.0414765
2.052068
2.2217934
2.5237959
3.0361731
3.6943178
4.4782722
5.3860626
6.4268079
7.5979011
8.8698112
10.186352
11.499655
12.844062
14.398205
16.441083
19.128443
21.997179
23.939179
15.784933
3.1563938
2.7466566
2.3902611
2.1087478
2.0329915
2.0308414
2.1751841
2.4427561
2.9275426
3.5713395
4.3459101
5.2453388
6.2844555
7.4762905
8.8145273
10.259071
11.743198
13.228283
14.808385
16.798425
19.694539
23.909232
28.994212
32.617785
19.6735
3.1721532
2.7486923
2.388416
2.1092553
2.0286127
2.0175371
2.139601
2.3731543
2.8254845
3.4517578
4.216331
5.1064364
6.1381067
7.3340133
8.7082645
10.247714
11.897925
13.579982
15.272979
17.16176
19.768029
23.944676
30.60505
39.29619
44.17939
22.650165
3.1816026
2.7439317
2.3818211
2.1082166
2.0263704
2.0098735
2.1133167
2.3152455
2.7314682
3.3363944
4.0898277
4.970487
5.9927583
7.1838794
8.571949
10.169898
11.954155
13.851053
15.767887
17.714889
20.014443
23.504794
29.633997
40.236946
54.134867
56.995298
23.092183
3.1860174
2.7334976
2.3709254
2.1051385
2.0249588
2.0059313
2.0942847
2.2681648
2.6463019
3.225843
3.9664475
4.837458
5.8499911
7.0326325
8.4215409
10.048902
11.924199
14.008631
16.202725
18.398792
20.659555
23.51606
28.296948
37.455547
54.291211
73.644333
66.783923
20.447885
3.1865294
2.718587
2.356456
2.1000221
2.0237134
2.0044778
2.0808794
2.2307099
2.5704296
3.1205829
3.8461659
4.7069646
5.7097384
6.8826877
8.2660955
9.904357
11.832997
14.055047
16.50966
19.062662
21.591487
24.245544
27.874152
34.577294
48.504165
74.390899
94.692433
68.521798
16.077817
3.184076
2.7003134
2.3391938
2.0930886
2.0223243
2.004786
2.0720319
2.2018477
2.5042968
3.0213141
3.7291097
4.578683
5.5714446
6.7342613
8.1093548
9.7483526
11.704416
14.015619
16.67407
19.586998
22.573641
25.499953
28.65732
33.384984
43.018776
64.43924
100.76531
109.99819
60.667705
12.877129
3.179393
2.6796519
2.3198463
2.0845878
2.0205773
2.0062985
2.0669385
2.1806886
2.4483638
2.9291579
3.6157947
4.4526131
5.434678
6.5868712
7.9522056
9.5866066
11.554511
13.919023
16.719387
19.929846
23.411361
26.92124
30.324668
34.145614
40.488068
54.706229
87.341932
129.47068
111.68225
49.988326
11.291036
3.1730333
2.6574268
2.2990182
2.0747266
2.0182458
2.0084322
2.0647545
2.1661997
2.4027619
2.8454743
3.5071754
4.3292023
5.2994119
6.4401247
7.7945047
9.4211715
11.391846
13.786486
16.679623
20.10897
24.019989
28.206716
32.346161
36.328808
41.062286
49.870084
71.41896
118.40714
151.11896
101.12133
43.051805
10.320895
3.1653912
2.6343283
2.2772376
2.063678
2.0151016
2.0105744
2.0645156
2.1570469
2.3669346
2.7713927
3.4044304
4.2092699
5.166075
6.2940392
7.6360567
9.252576
11.22031
13.630611
16.582747
20.164056
24.405451
29.206516
34.265277
39.159833
43.863636
49.925933
62.678318
95.911137
154.72096
155.25285
90.475917
37.996192
9.702115
3.1567351
2.6109189
2.2549691
2.0516116
2.0109654
2.0121672
2.0652492
2.1517063
2.3395869
2.7073772
3.3086253
4.0937777
5.0354207
6.1490706
7.4770059
9.0810131
11.041542
13.45805
16.447036
20.131823
24.613011
29.904827
35.834472
41.964985
47.765185
53.413842
61.558733
80.985567
131.29223
180.57505
149.774
80.79523
34.429669
9.2860036
3.1472568
2.5876514
2.2326251
2.0387168
2.0057494
2.0127841
2.0661203
2.1487118
2.3189644
2.6530787
3.2204506
3.9835712
4.9083054
6.0059741
7.3178962
8.9068616
10.856377
13.272165
16.283222
20.038501
24.690683
30.351518
37.000652
44.352869
51.789053
58.688718
65.691287
77.413248
108.63908
167.76398
191.31877
140.49849
73.032128
31.905972
8.99249
3.1371048
2.5648758
2.2105673
2.0252126
1.9994693
2.012164
2.0665159
2.1468557
2.3032509
2.6074939
3.1401428
3.8792275
4.7854961
5.8656169
7.1595665
8.7308366
10.665566
13.074766
16.097257
19.900787
24.675783
30.609029
37.815629
46.209426
55.335624
64.348921
72.642971
81.869318
100.38977
142.12215
193.28224
193.76536
130.63089
67.119935
30.089887
8.7776758
3.1263158
2.5428502
2.1890943
2.0113328
1.9922321
2.0102062
2.0660553
2.1452634
2.2908683
2.5692811
3.0675582
3.7810399
4.6675701
5.7288219
7.0029984
8.5539531
10.470089
12.867142
15.892384
19.728469
24.593682
30.730033
38.359974
47.582808
58.194806
69.499181
80.420402
90.695421
104.21046
128.62268
170.70874
212.51092
190.75474
121.74782
62.691737
28.75705
8.6162689
3.1146271
2.5217548
2.1684481
1.9973087
1.9842044
2.0069405
2.0645573
2.1433715
2.2806036
2.5370537
3.0023045
3.689088
4.5549079
5.5962883
6.8491814
8.3774125
10.271238
12.650636
15.670607
19.526845
24.459835
30.752449
38.707379
48.575655
60.400871
73.783299
87.717084
101.05266
114.76389
130.56387
154.1888
198.43772
224.9012
184.97737
114.35479
59.375352
27.761199
8.4927704
3.1013321
2.501664
2.1488299
1.9833491
1.9755854
2.0024898
2.0619905
2.1408632
2.2716004
2.5095593
2.9438538
3.603325
4.4477392
5.4685724
6.6990325
8.202485
10.070554
12.426916
15.43371
19.298829
24.282471
30.700091
38.913768
49.289956
62.082053
77.204718
93.962196
111.0716
127.94997
141.92859
154.29435
181.42198
223.12185
231.31914
178.32775
108.43434
56.874489
27.006041
8.3970954
3.0913714
2.4822375
2.1303691
1.9696151
1.9665839
1.9970337
2.058425
2.1376001
2.2632936
2.4857506
2.8916141
3.5236382
4.346195
5.346102
6.5533531
8.0304073
9.8697161
12.197993
15.183812
19.046646
24.065597
30.585418
39.015295
49.807036
63.377306
79.919436
99.102653
119.87864
141.12126
157.18891
165.90177
179.76263
209.04104
243.23384
233.31347
171.90245
103.77544
54.971629
26.426651
8.3223749
3.0901398
2.4693167
2.1128563
1.9562203
1.957402
1.9907711
2.0539907
2.1335645
2.2553333
2.4647903
2.8449654
3.449868
4.2503359
5.2291939
6.4128137
7.8623136
9.6704085
11.966107
14.923522
18.772873
23.811725
30.413674
39.030623
50.181194
64.40282
82.112715
103.32223
127.33022
152.98906
172.82804
182.40878
191.22073
206.55219
235.41819
258.22194
232.51505
166.20293
100.13268
53.510974
25.978098
8.2636555
3.0888692
2.4675323
2.1018505
1.9432449
1.9482171
1.9838895
2.0488447
2.1288124
2.2475211
2.4460279
2.8032822
3.3818086
4.1601682
5.1180697
6.2779493
7.6991898
9.4742211
11.733568
14.655837
18.480826
23.523743
30.187248
38.966442
50.440483
65.23914
83.946339
106.86145
133.63749
163.28029
187.13282
199.53254
208.58749
217.91316
233.79673
258.993
268.4638
230.23928
161.37612
97.286763
52.381031
25.628347
8.2172946
3.0875848
2.4654967
2.0995252
1.935395
1.9391467
1.9765725
2.0431523
2.1234345
2.2397587
2.4289708
2.7659569
3.3191992
4.0756391
5.012856
6.1491569
7.5418459
9.2825618
11.502584
14.383907
18.174462
23.205681
29.908866
38.824153
50.593486
65.928887
85.537219
109.93719
139.10452
172.24261
199.72485
215.21046
226.76572
236.11685
245.63476
260.24193
278.73162
274.8865
227.37531
157.39306
95.059482
51.501164
25.35412
8.1805764
3.0863033
2.4632488
2.0971219
1.9332349
1.9336503
1.9690699
2.0370768
2.1175277
2.2320092
2.413254
2.7324193
3.2617243
3.9966355
4.9135912
6.0267029
7.3909112
9.0966176
11.275156
14.11081
17.858071
22.862671
29.583059
38.605268
50.639244
66.484027
86.950672
112.71254
144.00627
180.26112
210.93699
229.02866
243.26676
255.26493
265.06761
273.54064
284.56172
294.32759
278.55023
224.44662
154.15392
93.311614
50.812342
25.138193
8.1514281
3.085025
2.4608257
2.0946152
1.9311621
1.9317882
1.9645252
2.0308037
2.1112035
2.2242714
2.3986059
2.7021548
3.2090281
3.9229857
4.820227
5.9107263
7.2468302
8.9173303
11.052993
13.839367
17.535917
22.500481
29.216247
38.314153
50.576088
66.899534
88.205944
115.28655
148.55347
187.66339
221.27332
241.47734
257.64034
272.31113
285.51603
294.92596
300.41641
305.7444
306.08723
280.38295
221.72256
151.54135
91.935994
50.270741
24.9676
8.1282487
3.083743
2.4582627
2.0920306
1.9291614
1.9300102
1.962831
2.0269572
2.1046842
2.2165797
2.3848218
2.6747094
3.1607295
3.8544683
4.7326391
5.8012529
7.109879
8.7454
10.837486
13.572029
17.211969
22.124988
28.816051
37.958338
50.406614
67.167382
89.293053
117.69504
152.8882
194.68566
231.10061
253.2255
270.62214
286.73331
303.20897
317.37341
324.5885
325.02024
323.32353
314.6537
281.08447
219.31755
149.44381
90.850391
49.843409
24.832474
8.1097918
3.0824582
2.4555927
2.0893765
1.9272198
1.9282851
1.9612756
2.0253679
2.1007466
2.2090669
2.3717746
2.6496922
3.1164372
3.7908275
4.6506425
5.6982089
6.9801804
8.5813008
10.629703
13.310833
16.889742
21.741766
28.390497
37.547628
50.138731
67.285399
90.193458
119.92646
157.07805
201.50448
240.62444
264.67235
283.14279
299.62195
317.46909
336.22816
349.92105
352.64824
346.45024
337.36015
320.7515
281.13487
217.25987
147.76394
89.9916
49.505296
24.725222
8.0950805
3.0811805
2.4528453
2.0866557
1.9253272
1.9266085
1.9598292
2.0239007
2.0990494
2.2046548
2.3595291
2.6268018
3.0757556
3.7317784
4.5740107
5.6014472
6.857732
8.4253077
10.43042
13.057396
16.572195
21.355797
27.947318
37.092753
49.784346
67.259774
90.89546
121.94952
161.12185
208.23388
250.00814
275.95225
295.65531
312.30452
329.85485
350.51377
370.78844
381.66575
377.84549
364.32931
348.26207
325.03338
280.84224
215.53419
146.42031
89.310815
49.23718
24.639958
8.0833451
3.0765577
2.4500598
2.083894
1.9234758
1.9249696
1.9584696
2.0225247
2.0975329
2.2026341
2.3524815
2.605959
3.0383267
3.6769991
4.5024809
5.5107683
6.7424301
8.2775273
10.240143
12.812936
16.261741
20.971374
27.493565
36.60433
49.35742
67.103589
91.399761
123.73663
164.98032
214.90572
259.3958
287.18166
308.18119
325.32083
342.25159
362.32964
385.71844
405.52149
411.01933
399.41963
378.75662
356.58105
328.02167
280.39414
214.10601
145.34626
88.770222
49.024195
24.572085
8.0739782
3.067373
2.4409988
2.0811621
1.9216615
1.9233579
1.957179
2.0212266
2.0961553
2.2008379
2.3492579
2.5940609
3.0040674
3.626163
4.4357258
5.4259241
6.6341022
8.1379339
10.059156
12.578322
15.960267
20.59206
27.035379
36.092169
48.872182
66.834017
91.718207
125.27519
168.61027
221.49621
268.84878
298.51691
320.75903
338.52762
355.31737
374.27595
397.32412
422.0495
438.68321
436.80162
417.19161
390.13076
362.86898
330.10606
279.89917
212.93469
144.48791
88.340343
48.854765
24.518002
8.0664977
3.0575551
2.4266173
2.0724544
1.9198901
1.9217743
1.9559435
2.0199913
2.0948881
2.1992109
2.3464701
2.5885623
2.9841844
3.57927
4.3733793
5.3465779
6.5325095
8.006407
9.8875639
12.354117
15.669186
20.220716
26.577947
35.564933
48.341994
66.469526
91.870682
126.56965
171.98025
227.9688
278.36479
310.0303
333.56094
351.85661
368.66979
387.15069
409.02454
434.2153
457.85702
468.7253
458.4846
431.42473
398.96885
367.6055
331.56524
279.41646
211.98009
143.80198
87.9981
48.719826
24.47487
8.0605221
3.0477925
2.415124
2.0586134
1.914319
1.9202381
1.9547519
2.0188051
2.0937091
2.1977209
2.3440096
2.5838668
2.9749308
3.5516869
4.3154978
5.2723149
6.4372946
7.8827349
9.7253383
12.140645
15.389506
19.859573
26.125547
35.030043
47.778831
66.0283
91.879381
127.63718
175.07483
234.28283
287.94797
321.73156
346.66823
365.52568
382.09976
400.23294
421.76717
446.25695
471.60101
491.40019
494.70296
476.13024
442.61432
405.78399
371.17629
332.59357
278.97526
211.20566
143.25378
87.725373
48.61226
24.440452
8.0557473
3.0383144
2.4055884
2.0468444
1.905801
1.9153896
1.9535956
2.0176609
2.0926008
2.1963411
2.3418042
2.579772
2.9670984
3.5385959
4.2811079
5.203205
6.3479834
7.7665532
9.5723243
11.938037
15.121896
19.510321
25.681619
34.493764
47.193089
65.526497
91.766458
128.50206
177.89521
240.38766
297.59823
333.69017
360.08567
379.65541
395.93156
413.12554
434.3785
459.26733
484.8513
507.71932
521.35492
516.35218
490.17007
451.31694
411.02482
373.87775
333.32465
278.58739
210.57946
142.81563
87.507876
48.526458
24.412974
8.0519304
3.0292361
2.3974671
2.0365206
1.8987086
1.9079365
1.9498872
2.0165573
2.0915487
2.1950499
2.3398006
2.5761421
2.9603373
3.5275598
4.2644613
5.1618038
6.2646548
7.6573407
9.428169
11.746251
14.866765
19.174179
25.248863
33.96128
46.593915
64.978329
91.552663
129.19121
180.45939
246.24061
307.2624
345.98934
373.95445
394.24049
410.40986
426.34076
446.20224
471.50917
498.82826
523.11479
540.97969
547.05571
533.92041
501.18625
458.05117
415.0571
375.93192
333.84969
278.25493
210.07437
142.46539
87.334316
48.45797
24.391025
8.0488797
3.0206243
2.3904199
2.0272649
1.8926054
1.9014133
1.9441696
2.0130294
2.0905381
2.1938311
2.3379579
2.5728766
2.954402
3.5180837
4.250506
5.141378
6.2142124
7.5551991
9.2923146
11.564985
14.624268
18.851998
24.829348
33.436759
45.988804
64.395889
91.256258
129.73043
182.79517
251.83187
316.84155
358.58403
388.47656
409.48545
425.56246
440.39325
458.01609
481.95918
511.14244
538.91021
559.29244
570.33827
568.44392
547.92854
509.76587
463.25619
418.16733
377.50294
334.23086
277.97489
209.66773
142.18539
87.195742
48.403279
24.373491
8.0464406
3.0125271
2.3842033
2.0188709
1.8872356
1.8955623
1.9390993
2.007548
2.0872973
2.192671
2.3362439
2.5698997
2.9491109
3.5098136
4.2385979
5.1243627
6.1888682
7.492636
9.1649244
11.393671
14.394223
18.544285
24.424638
32.923553
45.384013
63.789514
90.893189
130.1424
184.93301
257.17805
326.25171
371.31126
403.64519
425.72295
441.66086
455.45951
470.79675
491.69464
520.24876
552.01951
577.70478
592.02811
595.38674
585.86419
558.98124
516.4284
467.28445
420.57491
378.71156
334.51066
277.7419
209.34081
141.9615
87.085064
48.359595
24.359477
8.0444899
3.0049903
2.3786332
2.0111946
1.8824218
1.8901988
1.9345043
2.0025502
2.0823035
2.1890004
2.3346279
2.5671536
2.9443279
3.5024839
4.2282735
5.1099439
6.1678951
7.4606015
9.0859284
11.232598
14.176102
18.251086
24.03581
32.424306
44.784705
63.168049
90.477247
130.44656
186.90082
262.31133
335.46788
384.01141
419.22936
442.99817
459.15314
471.91256
485.06487
502.36112
527.46934
560.18383
592.45056
613.62742
620.57988
616.22402
599.85386
567.65486
521.60233
470.41041
422.44605
379.64668
334.71829
277.5498
209.07824
141.78247
86.996641
48.324685
24.348275
8.0429296
2.9980618
2.3735681
2.0041313
1.8780299
1.885205
1.9302475
1.9979175
2.0777186
2.1834382
2.3296061
2.5645855
2.9399494
3.4958961
4.2191836
5.0975327
6.1502524
7.4342557
9.0446724
11.131498
13.970425
17.971997
23.663337
31.941017
44.195135
62.539014
90.020382
130.65962
188.72289
267.26672
344.50992
396.61911
434.98662
461.00886
478.10429
490.2751
501.37932
515.08899
535.29425
564.79597
600.36835
630.76918
645.63267
644.78242
633.25433
610.99297
574.44788
525.62742
472.84435
423.90611
380.37395
334.87396
277.3925
208.86753
141.63931
86.925975
48.296783
24.339318
8.0416819
2.9917929
2.3688954
1.9976076
1.8739554
1.8804897
1.926221
1.9935224
2.0734424
2.1783087
2.322218
2.5567342
2.9358821
3.4898982
4.2110638
5.0866816
6.1351808
7.4122481
9.0109364
11.077582
13.83984
17.707962
23.307097
31.474863
43.618692
61.908815
89.533007
130.79592
190.4199
272.07504
353.41522
409.14336
450.80559
479.41868
498.10999
510.56083
520.29081
530.76541
545.77337
569.28162
602.64032
639.25647
665.69926
673.27549
664.8754
647.01154
619.82141
579.76885
528.76726
474.74621
425.04972
380.94222
334.9918
277.26433
208.69857
141.52481
86.869492
48.274482
24.332157
8.0397457
2.9862312
2.3645229
1.9915733
1.8701157
1.8759792
1.9223348
1.9892717
2.0693548
2.1734998
2.3154851
2.5453675
2.9236459
3.4843595
4.2037168
5.0770558
6.1221006
7.3935834
8.982942
11.033721
13.768622
17.538562
22.968765
31.026253
43.057684
61.28278
89.024187
130.86798
192.00984
276.76167
362.2215
421.62525
466.6892
498.07674
518.73298
532.21451
541.66467
549.9341
560.31975
576.92182
603.59413
639.73578
675.50399
696.51369
696.59369
681.31644
658.04397
626.80429
583.94255
531.22409
476.23743
425.94855
381.38804
335.08175
277.16033
208.56313
141.43325
86.824334
48.256649
24.320983
8.0362199
2.9814122
2.3603699
1.9859936
1.8664447
1.8716153
1.9185115
1.9850863
2.0653523
2.168863
2.3092068
2.5350235
2.9060728
3.4678764
4.1969748
5.0684014
6.1105774
7.3775011
8.9593629
10.997544
13.710949
17.443905
22.749688
30.598137
42.513457
60.664856
88.5017
130.88694
193.50824
281.34676
370.962
434.11139
482.6885
516.99122
539.79374
554.68639
564.73129
572.20797
579.46182
589.89282
608.00003
637.27457
674.8691
708.18669
722.99901
715.92933
694.63944
666.85383
632.32513
587.22294
533.15245
477.4104
426.65711
381.739
335.15096
277.07619
208.45462
141.36
86.78822
48.228767
24.3006
8.0307867
2.9773485
2.3563612
1.9808414
1.8628899
1.8673543
1.914685
1.9808966
2.0613433
2.1642795
2.3031735
2.5253577
2.8900506
3.4442668
4.1771177
5.0605083
6.1002843
7.3634294
8.9391879
10.967271
13.663636
17.367553
22.623895
30.318991
41.991088
60.057864
87.971638
130.86251
194.92872
285.84522
379.66386
446.64637
498.86684
536.23296
561.31786
577.76992
588.81025
596.54084
602.4682
608.73451
619.04587
638.28593
669.35273
707.09793
736.85065
745.31692
731.77034
705.36852
673.87321
636.69236
589.80702
534.67043
478.33562
427.21713
382.01609
335.20456
277.00827
208.36771
141.30141
86.731668
48.177885
24.269213
8.0225341
2.9740197
2.3524212
1.97609
1.8594114
1.863166
1.9108018
1.9766432
2.0572444
2.1596458
2.2972074
2.5160325
2.8749915
3.4225444
4.1488417
5.0375224
6.0909557
7.3509409
8.9216525
10.941535
13.62428
17.305215
22.522729
30.153515
41.649718
59.470427
87.43891
130.8025
196.2831
290.26865
388.34752
459.26861
515.291
555.89333
583.40751
601.51017
613.66421
622.10687
627.96799
632.30597
637.34386
647.18987
667.03555
699.02433
735.84941
761.44075
763.85006
744.64145
713.97539
679.46067
640.15059
591.84708
535.86851
479.06722
427.66071
382.23541
335.2463
276.95355
208.29811
141.20947
86.628384
48.099553
24.221595
8.0102686
2.9713645
2.3484741
1.9717048
1.8559809
1.859035
1.9068222
1.97228
2.0529823
2.1548701
2.2911537
2.5067627
2.8603589
3.4019
4.1226028
5.0051006
6.0641013
7.3396859
8.9061841
10.919309
13.591025
17.253626
22.440444
30.020718
41.438851
59.089909
86.917408
130.71384
197.58073
294.62702
397.02835
472.00605
532.02267
576.07796
606.19996
626.04773
639.34447
648.62476
654.98476
658.88409
661.31193
664.75553
673.72581
693.62114
725.75148
760.90898
782.17805
779.07813
755.04154
720.8641
683.90754
642.89237
593.46102
536.81631
479.64694
428.01271
382.40934
335.27897
276.90952
208.18821
141.04128
86.469349
47.980752
24.150944
7.992611
2.9692791
2.3444438
1.9676396
1.8525815
1.8549582
1.9027243
1.9677775
2.048497
2.1498737
2.2848787
2.4973049
2.8456879
3.3815853
4.0974129
4.9747613
6.0267
7.3076562
8.8923249
10.89982
13.562466
17.210262
22.372629
29.91298
41.269704
58.839843
86.597809
130.6181
198.83024
298.92779
405.72155
484.87638
549.10345
596.89079
629.86699
651.58722
666.02436
676.1258
683.17683
687.34935
688.86977
688.96181
690.44055
698.15568
717.61316
749.28026
782.34402
799.44039
791.49619
763.41419
726.37071
687.44752
645.06888
594.7402
537.5676
480.10712
428.29248
382.54751
335.30463
276.83786
207.98632
140.78203
86.228082
47.804585
24.049499
7.9683139
2.9676224
2.3402556
1.9638345
1.849206
1.8509433
1.898506
1.9631265
2.043747
2.144596
2.2782708
2.487454
2.8305763
3.3609415
4.0723323
4.9453494
5.9914034
7.2637643
8.8532504
10.882446
13.53756
17.173215
22.315867
29.82444
41.132546
58.638926
86.355549
130.6362
200.06103
303.17876
414.43734
497.89458
566.55171
618.40289
654.58797
678.40698
693.99485
704.79702
712.52274
717.28933
718.77446
717.38599
714.74979
713.97223
720.14627
738.80109
769.59968
800.40822
813.67054
801.5685
770.13855
730.76981
690.2669
646.79874
595.75571
538.16413
480.47293
428.51509
382.65741
335.33897
276.70375
207.67408
140.38805
85.87016
47.551835
23.910426
7.9368557
2.9662226
2.3358367
1.9602165
1.8458547
1.8470049
1.8941845
1.9583402
2.0387158
2.1390011
2.2712477
2.4770484
2.8146829
3.3393902
4.0465275
4.9157394
5.9568311
7.2219385
8.8008379
10.833744
13.515456
17.141041
22.267544
29.750498
41.019838
58.47556
86.159071
130.55149
201.1221
307.41909
423.17021
511.06969
584.37996
640.64134
680.49271
706.81136
723.689
735.02755
743.19616
748.59723
750.54255
748.69012
743.91774
738.28059
735.07786
739.54484
757.16887
786.87452
815.45613
825.31598
809.70712
775.5308
734.28336
692.5136
648.17506
596.563
538.63841
480.76406
428.69241
382.81984
335.39539
276.49368
207.19719
139.80214
85.356346
47.205744
23.731278
7.8991488
2.9648875
2.3311189
1.9567017
1.8425316
1.8431589
1.889794
1.9534525
2.0334156
2.1330836
2.2637654
2.4659818
2.7977402
3.3164311
4.0192568
4.8849289
5.9216361
7.1804927
8.7503282
10.770251
13.453445
17.112583
22.225701
29.687645
40.925651
58.340721
85.996966
130.4774
201.60652
310.86195
431.90315
524.39089
602.60233
663.62299
707.64046
737.03323
755.60079
767.45393
775.68924
781.40616
783.95811
782.32987
776.54354
768.06999
759.31441
753.64806
756.35878
772.84681
801.37692
827.87925
834.79455
816.26553
779.85063
737.08957
694.30493
649.27115
597.20549
539.01594
480.99599
428.9565
383.10686
335.47622
276.16665
206.48263
138.958
84.65226
46.760657
23.517935
7.857867
2.9634135
2.3260383
1.9532007
1.8392405
1.8394178
1.8853795
1.9485138
2.0278883
2.126872
2.2558246
2.4542154
2.7795757
3.2916633
3.9898711
4.852023
5.8846146
7.1377897
8.6996165
10.708245
13.375665
17.031824
22.188714
29.633225
40.84538
58.227217
85.860444
130.40825
201.98015
312.74436
438.62592
537.84665
621.21071
687.38747
736.08032
769.20397
790.12848
802.82931
810.88537
816.31308
819.09245
817.96927
812.0393
801.90738
789.61149
777.771
769.716
770.71693
786.05932
813.43015
838.06453
842.47814
821.54039
783.30925
739.33109
695.73395
650.14476
597.71734
539.31676
481.34155
429.42587
383.54118
335.58468
275.66277
205.442
137.79558
83.745993
46.231748
23.286137
7.8168912
2.9615898
2.3205318
1.9496225
1.8359812
1.8357861
1.8809882
1.9435828
2.0222015
2.1204285
2.2474763
2.4417888
2.7601341
3.2648216
3.9578434
4.8162378
5.8446867
7.0923557
8.6466707
10.64505
13.298485
16.935781
22.080814
29.584963
40.775528
58.129444
85.74239
130.34043
202.25778
314.22694
442.88046
548.33744
640.19658
711.95393
765.9342
803.45859
827.54474
841.79296
849.86092
854.48514
856.64881
855.60598
849.95118
839.18177
824.52985
808.47575
793.70617
783.42157
782.8267
797.07931
823.36844
846.37045
848.68772
825.77709
786.07729
741.12187
696.87448
650.84153
598.12543
539.76564
481.95597
430.13958
384.18201
335.71346
274.89984
203.98764
136.28994
82.668106
45.658561
23.057911
7.7799902
2.9591992
2.3145371
1.9458773
1.8327479
1.8322571
1.8766611
1.9387168
2.0164392
2.1138425
2.238819
2.4288223
2.7394989
3.2358145
3.9228169
4.7769404
5.800909
7.0428642
8.5896495
10.578096
13.218456
16.838619
21.961715
29.436433
40.712859
58.043018
85.637036
130.2707
202.4543
315.37053
446.26408
555.01019
655.13867
737.33294
797.32809
840.10199
868.18221
884.86667
893.57082
897.37592
898.10961
896.05194
890.20055
879.33293
863.45478
844.33639
824.73435
807.27564
794.97288
792.9364
806.19418
831.51155
853.11577
853.69453
829.17654
788.29216
742.55278
697.78513
651.39757
598.737
540.56444
482.89064
431.20082
385.0912
335.82927
273.77742
202.06781
134.48596
81.49911
45.09577
22.853965
7.7495796
2.9560155
2.3079855
1.9418792
1.8295291
1.8288127
1.8724266
1.9339617
2.0106891
2.1072184
2.2299886
2.4155074
2.7178964
3.2047597
3.8846594
4.7337115
5.7525291
6.9881581
8.5268819
10.505023
13.132255
16.735817
21.838316
29.289148
40.501016
57.963368
85.539839
130.19628
202.58178
316.23391
448.93254
560.33106
664.70465
757.54508
830.36132
879.5237
912.72887
932.7937
942.92318
946.321
945.35182
941.1305
933.71093
922.2107
905.73622
884.75023
861.40091
838.55842
818.69735
804.61242
801.30634
813.68287
838.15075
858.57615
857.72447
831.9022
790.06417
743.69636
698.51249
652.23471
599.82846
541.78002
484.28134
432.72533
386.3056
335.85082
272.19992
199.71567
132.51424
80.350744
44.594204
22.687014
7.7263196
2.9517913
2.3007938
1.9375461
1.8263085
1.8254238
1.8682964
1.9293448
2.0050291
2.100661
2.2211414
2.4020857
2.6956809
3.1719991
3.8435142
4.6864149
5.6990671
6.927328
8.4569158
10.423685
13.036801
16.622993
21.704573
29.131777
40.321644
57.647585
85.443915
130.11444
202.64911
316.86575
451.02615
564.53753
672.3673
770.62079
857.17671
922.07928
962.17531
987.04605
999.40108
1002.7616
1000.1495
993.18272
982.66418
968.85206
951.16155
928.99541
903.12622
875.9039
850.17972
828.21925
812.5914
808.18929
819.80259
843.54265
862.9853
860.96382
834.08648
791.48175
744.61045
699.6108
653.73402
601.49274
543.58956
486.28094
434.80327
387.78498
335.63506
270.12753
197.08313
130.56302
79.327078
44.184587
22.559998
7.709538
2.9462385
2.2928527
1.9327969
1.8230665
1.8220526
1.864265
1.9248712
1.9995164
2.0942592
2.2124315
2.3888172
2.6732959
3.1380811
3.7998248
4.6352616
5.6404055
6.8598173
8.3786247
10.332221
12.929277
16.496044
21.554597
28.956112
40.121755
57.437869
84.948263
130.01466
202.66172
317.30452
452.66189
567.8449
678.44688
781.17138
874.82635
957.64807
1017.5764
1049.9276
1065.9576
1069.3369
1064.6236
1054.4792
1039.8992
1021.8041
1000.8808
976.80746
949.13332
918.76201
888.09042
859.85781
836.09481
819.1522
813.81866
824.78222
847.90804
866.53866
863.56499
835.83619
792.61579
745.99279
701.58313
656.02696
603.97794
546.19302
489.0097
437.42161
389.35085
335.00615
267.63983
194.41834
128.81277
78.491059
43.873539
22.46872
7.6979405
2.9389929
2.2840103
1.9275486
1.819782
1.8186542
1.8603113
1.9205237
1.9941808
2.0880745
2.2039899
2.375943
2.6512165
3.1037067
3.7543191
4.5808406
5.5768681
6.7855416
8.2913496
10.229201
12.807249
16.351208
21.382832
28.754102
39.890009
57.188856
84.72723
129.19191
202.60117
317.57611
453.93577
570.43301
683.24078
789.59585
889.22731
981.69369
1065.9862
1124.2983
1147.5608
1151.4848
1143.0252
1127.9686
1108.2427
1084.4256
1057.8007
1029.4456
999.11637
966.31473
931.91166
898.23474
867.85565
842.56677
824.51798
818.40262
828.8203
851.43372
869.39797
865.65204
837.23738
794.33347
748.47983
704.60781
659.46677
607.57072
549.74829
492.45295
440.36307
390.6769
333.8506
264.95684
191.98101
127.37638
77.856278
43.650325
22.405815
7.6901645
2.92955
2.2740469
1.921708
1.816433
1.8151788
1.8564011
1.9162647
1.9890232
2.0821342
2.1959088
2.3636555
2.629884
3.0696421
3.7079434
4.5240979
5.5092566
6.7049881
8.1950552
10.11383
12.668873
16.185246
21.184176
28.518112
39.615276
56.884786
84.432873
129.02619
201.16793
317.63824
454.92501
572.45083
687.00029
796.27526
900.83862
1001.6538
1100.1309
1193.5538
1251.289
1259.0099
1244.4919
1219.9716
1191.6193
1160.1535
1125.8055
1090.1595
1054.4371
1018.2242
980.79546
942.86459
906.61447
874.42345
847.85748
828.88737
822.12215
832.08594
854.27572
871.696
867.32556
839.36556
797.42989
752.30263
709.16486
664.47538
612.51324
554.23644
496.32625
443.16548
391.40635
332.22581
262.37135
189.94985
126.2819
77.400807
43.496648
22.363718
7.6850569
2.9170558
2.2626319
1.9151615
1.8129964
1.8115721
1.8524899
1.9120394
1.9840175
2.0764302
2.1882326
2.352077
2.6096505
3.0366158
3.6617509
4.4662532