/*--------------------------------*- C++ -*----------------------------------*\
| =========                 |                                                 |
| \\      /  F ield         | OpenFOAM: The Open Source CFD Toolbox           |
|  \\    /   O peration     | Version:  2206                                  |
|   \\  /    A nd           | Website:  www.openfoam.com                      |
|    \\/     M anipulation  |                                                 |
\*---------------------------------------------------------------------------*/
FoamFile
{
    version     2.0;
    format      ascii;
    arch        "LSB;label=32;scalar=64";
    class       volScalarField;
    location    "0.0452892";
    object      p;
}
// * * * * * * * * * * * * * * * * * * * * * * * * * * * * * * * * * * * * * //

dimensions      [1 -1 -2 0 0 0 0];

internalField   nonuniform List<scalar> 
19794
(
101282.38
101233.27
101302.85
101203.59
101280.62
101296.22
101172.13
101271.9
101260.87
101297.98
101143.82
101263.45
101241.93
101267.39
101297.09
101118.29
101259.13
101220.54
101255.31
101263.78
101296.41
101096.71
101257.13
101201.46
101242.59
101250.3
101262.72
101295.37
101079.05
101256.92
101183.49
101234.59
101234.52
101251.46
101260.41
101294.11
101063.95
101257.73
101168.11
101228.5
101222.35
101238.39
101250.18
101257.76
101292.66
101050.92
101258.32
101155.61
101224.67
101210.74
101230.36
101237.69
101248.84
101254.82
101291
101038.12
101258.29
101145.48
101222.64
101201.06
101223.33
101230.48
101237.5
101247.15
101251.74
101289.08
101025.29
101256.43
101136.66
101221.54
101193.63
101218.3
101223.54
101232.26
101236.74
101245.2
101248.66
101286.84
101012.08
101252.78
101128.06
101220.08
101187.74
101215.53
101217.96
101227.22
101233.1
101235.48
101243.07
101245.63
101284.23
100998.43
101247.53
101119.17
101217.05
101182.53
101213.93
101214.38
101223.42
101229.44
101233.16
101233.78
101240.81
101242.64
101281.21
100984.61
101241.11
101109.73
101211.92
101176.59
101212.44
101211.81
101221.75
101226.79
101230.74
101232.45
101231.73
101238.43
101239.62
101277.75
100971.03
101234.13
101099.7
101204.8
101169.34
101209.41
101209.33
101220.95
101226.23
101229.26
101231.03
101231.09
101229.45
101235.9
101236.53
101273.88
100957.98
101227.11
101089.35
101196.11
101160.71
101204.1
101205.33
101220.16
101226.34
101229.83
101230.62
101230.42
101229.22
101226.97
101233.18
101233.32
101269.58
100945.58
101220.38
101079.02
101186.58
101150.88
101196.52
101199.03
101217.55
101226.25
101230.98
101232.23
101230.96
101229.13
101226.95
101224.29
101230.23
101229.98
101264.83
100933.91
101214.11
101068.94
101176.91
101140.37
101187.09
101190.47
101212.24
101224.08
101231.81
101234.39
101233.42
101230.44
101227.28
101224.33
101221.41
101227.09
101226.56
101259.61
100923
101208.44
101059.25
101167.53
101129.7
101176.59
101180.04
101204.23
101218.87
101230.38
101236.09
101236.56
101233.63
101229.26
101224.96
101221.39
101218.32
101223.78
101223.06
101253.83
100912.84
101203.38
101050.04
101158.71
101119.21
101165.77
101168.52
101194
101210.65
101225.67
101235.37
101239.04
101237.67
101233.04
101227.48
101222.21
101218.13
101215.1
101220.41
101219.43
101247.34
100903.4
101198.95
101041.34
101150.64
101109.14
101155.18
101156.67
101182.42
101199.97
101217.71
101231.11
101238.97
101240.86
101237.96
101231.82
101225.19
101219.07
101214.62
101211.85
101217.05
101215.62
101240.01
100894.63
101195.1
101033.17
101143.4
101099.64
101145.11
101145.04
101170.36
101187.78
101207.14
101223.38
101235.17
101241.39
101241.77
101237.53
101230.09
101222.44
101215.62
101211.03
101208.72
101213.75
101211.52
101231.69
100886.52
101191.81
101025.5
101136.98
101090.77
101135.77
101133.96
101158.48
101174.99
101194.98
101212.93
101227.72
101238.04
101242.86
101241.92
101236.47
101227.92
101219.32
101212.04
101207.53
101205.78
101210.47
101207.06
101222.3
100879.03
101189.01
101018.3
101131.35
101082.54
101127.27
101123.6
101147.13
101162.3
101182.16
101200.83
101217.5
101230.93
101239.98
101243.55
101241.44
101234.85
101225.36
101216.03
101208.56
101204.3
101202.99
101207.04
101202.06
101211.89
100872.15
101186.67
101011.55
101126.46
101074.91
101119.6
101114.06
101136.54
101150.1
101169.41
101188.02
101205.59
101221.04
101233.29
101241.21
101243.62
101240.42
101232.76
101222.52
101212.77
101205.37
101201.44
101200.28
101203.17
101196.47
101200.76
100865.87
101184.73
101005.22
101122.25
101067.84
101112.75
101105.32
101126.82
101138.6
101157.11
101175.2
101192.93
101209.44
101223.82
101235.04
101241.91
101243.19
101238.92
101230.34
101219.61
101209.76
101202.57
101198.88
101197.48
101198.59
101190.48
101189.66
100860.1
101183.14
100999.3
101118.65
101061.27
101106.66
101097.32
101117.99
101127.93
101145.47
101162.8
101180.2
101197.01
101212.59
101226.11
101236.44
101242.24
101242.35
101237.07
101227.81
101216.86
101207.12
101200.15
101196.45
101194.39
101193.32
101184.19
101179.5
100854.88
101181.9
100993.75
101115.61
101055.16
101101.26
101090
101110.01
101118.13
101134.59
101150.99
101167.84
101184.42
101200.46
101215.37
101228.19
101237.63
101242.27
101241.23
101235.09
101225.41
101214.45
101204.88
101198.05
101194.03
101191.33
101186.89
101178.63
101171.09
100850.15
101180.91
100988.57
101113.07
101049.47
101096.5
101083.29
101102.82
101109.17
101124.53
101139.86
101156.04
101172.13
101188.05
101203.58
101218.01
101230.19
101238.68
101242.09
101239.99
101233.26
101223.34
101212.45
101202.98
101196.13
101191.43
101186.53
101182.27
101174.22
101165.17
100845.85
101180.2
100983.74
101110.97
101044.16
101092.31
101077.12
101096.36
101100.99
101115.26
101129.44
101144.85
101160.35
101175.83
101191.36
101206.61
101220.66
101232.16
101239.62
101241.87
101238.9
101231.77
101221.71
101210.82
101201.32
101194.25
101187.94
101186.04
101174.81
101173.43
101161.46
100841.96
101179.71
100979.25
101109.26
101039.21
101088.64
101071.42
101090.54
101093.53
101106.73
101119.7
101134.33
101149.14
101164.04
101179.19
101194.6
101209.67
101223.3
101234.06
101240.49
101241.77
101238.2
101230.74
101220.47
101209.48
101199.8
101192.11
101188.49
101177.44
101174.33
101172.84
101158.45
100838.44
101179.42
100975.04
101107.9
101034.58
101085.43
101066.15
101085.31
101086.72
101098.91
101110.62
101124.43
101138.53
101152.78
101167.35
101182.44
101197.85
101212.74
101225.89
101235.87
101241.43
101241.96
101237.94
101230.09
101219.51
101208.33
101198.3
101193.51
101179.42
101180.82
101172.09
101172.68
101155.99
100835.25
101179.31
100971.14
101106.86
101030.27
101082.65
101061.27
101080.6
101080.49
101091.74
101102.14
101115.14
101128.49
101142.06
101155.96
101170.48
101185.69
101201.11
101215.74
101228.37
101237.68
101242.56
101242.51
101238.02
101229.68
101218.72
101207.23
101199.57
101186.72
101185.8
101178.28
101171
101172.63
101154
100832.37
101179.41
100967.49
101106.1
101026.24
101080.25
101056.73
101076.36
101074.78
101085.19
101094.23
101106.4
101118.99
101131.86
101145.06
101158.88
101173.55
101188.92
101204.29
101218.64
101230.83
101239.62
101243.94
101243.33
101238.26
101229.36
101217.79
101208.74
101194.98
101193.77
101183.64
101177.7
101170.3
101172.59
101152.4
100829.69
101179.76
100964.09
101105.57
101022.48
101078.2
101052.5
101072.55
101069.52
101079.19
101086.84
101098.19
101109.99
101122.16
101134.64
101147.71
101161.67
101176.59
101192.09
101207.4
101221.56
101233.45
101241.81
101245.54
101244.29
101238.55
101228.65
101219.57
101205.62
101202.24
101192.59
101183.98
101177.36
101169.79
101172.53
101151.13
100827.11
101180.27
100960.91
101105.29
101018.96
101076.46
101048.57
101069.13
101064.66
101073.72
101079.94
101090.45
101101.45
101112.91
101124.67
101136.97
101150.13
101164.39
101179.6
101195.25
101210.59
101224.72
101236.43
101244.31
101247.32
101245.31
101238.24
101230.89
101216.75
101212.79
101202.45
101193.86
101184.1
101177.15
101169.4
101172.46
101150.11
100824.75
101180.36
100957.96
101105.27
101015.68
101074.99
101044.9
101066.07
101060.17
101068.74
101073.51
101083.18
101093.34
101104.09
101115.1
101126.63
101138.98
101152.44
101167.09
101182.64
101198.56
101214.14
101228.4
101239.89
101247.11
101249.23
101245.67
101241.14
101228.04
101224.46
101213.82
101204.59
101194.75
101184.15
101177.03
101169.11
101172.39
101149.3
100823.29
101179.62
100955.32
101105.44
101012.61
101073.8
101041.48
101063.34
101056
101064.2
101067.52
101076.35
101085.62
101095.65
101105.92
101116.67
101128.18
101140.81
101154.73
101169.89
101185.95
101202.38
101218.41
101232.78
101243.81
101250.13
101250.5
101249.32
101238.47
101236.31
101226.11
101216.44
101206.31
101195.49
101184.18
101176.98
101168.88
101172.32
101148.65
100823.25
101180.6
100952.94
101105.41
101009.77
101072.87
101038.3
101060.9
101052.12
101060.08
101061.95
101069.95
101078.29
101087.6
101097.1
101107.04
101117.71
101129.47
101142.6
101157.17
101173.04
101189.88
101207.07
101223.57
101237.79
101248.08
101252.55
101254.95
101247.17
101247.26
101238.16
101229.21
101218.74
101207.72
101196.09
101184.23
101176.96
101168.7
101172.26
101148.13
100819.46
101186.35
100950.16
101104.99
101007.2
101072.16
101035.34
101058.75
101048.5
101056.32
101056.79
101063.96
101071.31
101079.9
101088.61
101097.74
101107.54
101118.41
101130.68
101144.55
101160.03
101176.95
101194.84
101212.85
101229.55
101243.3
101251.75
101257.92
101253.6
101256.27
101249.2
101241.55
101231.93
101220.67
101208.85
101196.56
101184.29
101176.95
101168.56
101172.2
101147.72
100817.91
101186.96
100947.69
101105.64
101004.82
101071.39
101032.6
101056.88
101045.14
101052.91
101051.99
101058.37
101064.69
101072.55
101080.46
101088.74
101097.64
101107.59
101118.97
101132.06
101147
101163.76
101182.02
101201.06
101219.6
101236.19
101248.21
101258.21
101257.6
101262.82
101258.23
101252.76
101244.53
101234.17
101222.24
101209.73
101196.91
101184.36
101176.95
101168.44
101172.16
101147.39
100817.07
101188.09
100944.77
101108.94
101002.14
101070.4
101030.08
101055.26
101042.02
101049.82
101047.53
101053.16
101058.42
101065.55
101072.63
101080.04
101088.01
101097
101107.44
101119.67
101133.97
101150.41
101168.79
101188.53
101208.39
101227.18
101242.2
101255.89
101259.07
101267
101264.83
101261.85
101255.88
101247
101235.99
101223.48
101210.4
101197.2
101184.42
101176.95
101168.35
101172.12
101147.12
100816.17
101189.29
100943.2
101109.68
101000.06
101070.23
101027.65
101053.66
101039.15
101047.04
101043.41
101048.33
101052.47
101058.88
101065.11
101071.66
101078.64
101086.63
101096.06
101107.38
101120.92
101136.91
101155.24
101175.43
101196.26
101216.76
101234.11
101251.09
101257.93
101268.91
101269.19
101268.49
101265.02
101258.46
101248.99
101237.44
101224.45
101210.93
101197.42
101184.47
101176.95
101168.27
101172.08
101146.91
100815.29
101190.39
100942.09
101110.41
100998.23
101072.19
101025.11
101051.95
101036.44
101044.52
101039.61
101043.85
101046.85
101052.55
101057.92
101063.58
101069.55
101076.47
101084.84
101095.15
101107.85
101123.25
101141.39
101161.86
101183.41
101205.28
101224.39
101244.1
101254.24
101268.53
101271.36
101272.97
101271.69
101267.64
101260.54
101250.56
101238.56
101225.2
101211.33
101197.61
101184.52
101176.96
101168.21
101172.05
101146.75
100814.68
101191.44
100940.98
101111.12
100997.11
101072.55
101023.53
101050.89
101033.75
101042.12
101036.11
101039.75
101041.56
101046.56
101051.04
101055.82
101060.75
101066.55
101073.77
101082.98
101094.73
101109.41
101127.23
101147.84
101169.97
101192.99
101213.45
101235.31
101248.22
101265.71
101271.21
101275.37
101276.27
101274.36
101269.78
101262.18
101251.78
101239.43
101225.77
101211.65
101197.76
101184.56
101176.96
101168.17
101172.03
101146.61
100814.85
101192.41
100939.86
101111.8
100996.26
101072.9
101022.11
101051.91
101031.14
101039.7
101032.81
101035.99
101036.62
101040.91
101044.47
101048.37
101052.25
101056.89
101062.89
101070.9
101081.57
101095.39
101112.75
101133.35
101155.97
101180.05
101201.58
101225.17
101240.25
101260.47
101268.5
101275.53
101278.88
101279.06
101276.56
101271.47
101263.45
101252.72
101240.1
101226.21
101211.89
101197.88
101184.59
101176.96
101168.13
101172.01
101146.5
100816.04
101193.03
100938.93
101112.46
100995.43
101073.25
101021.25
101051.75
101029.99
101037.84
101029.58
101032.4
101032.01
101035.65
101038.23
101041.25
101044.05
101047.5
101052.21
101058.91
101068.39
101081.19
101097.93
101118.35
101141.4
101166.45
101188.95
101214.1
101230.8
101253.09
101263.22
101273.09
101279.26
101281.85
101281.38
101278.32
101272.79
101264.42
101253.43
101240.61
101226.56
101212.09
101197.98
101184.62
101176.96
101168.09
101171.99
101146.42
100813.77
101192.72
100938.74
101113.09
100994.61
101073.58
101020.59
101051.72
101028.74
101037.99
101026.63
101028.82
101027.5
101030.75
101032.4
101034.49
101036.17
101038.41
101041.78
101047.07
101055.21
101066.82
101082.77
101102.85
101126.26
101152.12
101175.59
101202.5
101220.29
101244.06
101255.68
101267.99
101276.99
101282.45
101284.34
101283.25
101279.7
101273.79
101265.16
101253.98
101241
101226.83
101212.24
101198.05
101184.64
101176.96
101168.07
101171.98
101146.35
100813.38
101189.42
100939.8
101113.53
100993.91
101073.9
101019.97
101051.75
101027.99
101037.37
101025.48
101025.84
101022.78
101025.83
101026.9
101028.17
101028.67
101029.64
101031.62
101035.41
101042.09
101052.32
101067.32
101086.84
101110.52
101136.91
101161.79
101190.41
101208.99
101234
101246.43
101260.53
101271.94
101280.31
101285.13
101286.39
101284.75
101280.77
101274.55
101265.71
101254.39
101241.31
101227.04
101212.37
101198.12
101184.66
101176.96
101168.05
101171.97
101146.3
100812.62
101189.9
100938.94
101113.43
100993.66
101074.2
101019.37
101051.78
101027.43
101037.02
101024.18
101025.54
101018.6
101020.36
101021.23
101022.2
101021.62
101021.25
101021.76
101023.98
101029.07
101037.73
101051.62
101070.37
101094.03
101120.79
101147.44
101177.31
101197.1
101223.5
101236.16
101251.37
101264.43
101275.29
101283.12
101287.35
101288.04
101285.91
101281.58
101275.13
101266.14
101254.71
101241.55
101227.2
101212.46
101198.17
101184.67
101176.96
101168.03
101171.96
101146.25
100811.79
101190.54
100938.37
101111.96
100994.14
101074.41
101018.87
101051.81
101026.91
101036.78
101023.4
101024.18
101018.55
101015.74
101014.63
101015.92
101014.91
101013.35
101012.29
101012.82
101016.22
101023.14
101035.72
101053.42
101076.83
101103.99
101132.46
101163.22
101185.05
101212.93
101225.46
101241.29
101255.17
101267.71
101278.13
101285.46
101289.15
101289.34
101286.81
101282.2
101275.57
101266.46
101254.96
101241.73
101227.33
101212.54
101198.21
101184.68
101176.95
101168.01
101171.96
101146.21
100811.1
101191
100937.43
101112.16
100993.24
101074.31
101018.69
101051.86
101026.43
101036.57
101022.82
101023.43
101016.04
101017.86
101009.05
101008.39
101007.77
101005.8
101003.31
101002.02
101003.59
101008.6
101019.69
101035.89
101059
101086.36
101116.54
101148.27
101172.92
101202.01
101214.43
101231
101245.11
101258.37
101270.48
101280.5
101287.37
101290.59
101290.35
101287.51
101282.68
101275.91
101266.72
101255.16
101241.88
101227.44
101212.6
101198.24
101184.69
101176.95
101168
101171.95
101146.17
100810.56
101191.42
100936.51
101112.5
100992.42
101073.14
101018.98
101051.91
101026.04
101036.37
101022.3
101022.93
101014.88
101014.07
101013.03
101002.19
100999.09
100997.72
100994.71
100991.73
100991.29
100994.18
101003.6
101017.99
101040.73
101067.88
101099.63
101132.49
101160.24
101189.86
101202.83
101220.65
101234.94
101248.33
101261.07
101272.81
101282.44
101288.9
101291.72
101291.14
101288.04
101283.05
101276.17
101266.91
101255.31
101241.99
101227.52
101212.65
101198.26
101184.69
101176.95
101168
101171.94
101146.13
100810.16
101191.81
100935.71
101112.78
100991.44
101072.96
101017.83
101051.88
101025.91
101036.22
101021.82
101022.47
101014.19
101012.77
101007.3
101008.6
100991.95
100987.86
100985.49
100981.82
100979.5
100980.02
100987.53
100999.84
101021.98
101048.54
101081.81
101115.81
101146.77
101177.02
101191.29
101210.03
101224.73
101238.35
101251.06
101263.32
101274.72
101284.02
101290.11
101292.6
101291.75
101288.46
101283.33
101276.38
101267.06
101255.43
101242.08
101227.58
101212.69
101198.28
101184.7
101176.95
101167.99
101171.92
101146.07
100809.89
101192.15
100935.02
101113.05
100990.53
101072.94
101016.93
101050.63
101026.07
101036.15
101021.45
101022.06
101013.53
101012.17
101005.79
101000.96
101000.24
100979.74
100974.27
100971.24
100968.1
100966.32
100971.63
100981.51
101002.77
101028.38
101063.06
101098.08
101132.46
101163.65
101179.45
101198.76
101214.08
101228.39
101241.27
101253.35
101265.19
101276.29
101285.28
101291.07
101293.29
101292.23
101288.78
101283.56
101276.54
101267.18
101255.52
101242.15
101227.64
101212.72
101198.29
101184.7
101176.95
101167.99
101171.87
101146
100809.72
101192.42
100934.44
101113.29
100989.72
101072.91
101015.92
101050.15
101024.59
101036.1
101021.27
101021.75
101012.98
101011.53
101005.23
100999.44
100990.67
100989.65
100964.92
100958.46
100956.01
100953.03
100956.12
100963.18
100983.2
101007.46
101043.41
101079.24
101117.29
101149.7
101166.91
101186.55
101202.78
101217.98
101231.54
101243.72
101255.24
101266.72
101277.55
101286.29
101291.82
101293.83
101292.6
101289.03
101283.73
101276.66
101267.28
101255.59
101242.21
101227.68
101212.74
101198.31
101184.7
101176.96
101167.98
101171.79
101145.92
100809.63
101192.6
100933.98
101113.49
100989.03
101072.89
101014.98
101049.79
101023.62
101034.76
101021.27
101021.61
101012.66
101011.07
101004.54
100999.02
100989.11
100978.44
100975.83
100947.54
100941.54
100939.02
100940.99
100945.1
100963.45
100985.83
101022.86
101059.22
101101.17
101135.1
101153.69
101173.93
101191.11
101206.91
101221.29
101234.19
101245.75
101256.8
101267.97
101278.57
101287.08
101292.41
101294.25
101292.89
101289.23
101283.87
101276.76
101267.35
101255.65
101242.26
101227.71
101212.76
101198.31
101184.7
101176.97
101167.96
101171.67
101145.86
100809.59
101192.7
100933.62
101113.64
100988.43
101072.85
101014.15
101049.43
101022.61
101034
101019.7
101021.55
101012.7
101010.98
101004.16
100998.35
100988.74
100976.82
100963.31
100958.71
100928.88
100922.48
100925.14
100927.36
100943.8
100963.61
101001.47
101037.86
101084.04
101119.72
101139.81
101160.94
101178.96
101195.27
101210.28
101224.05
101236.39
101247.43
101258.07
101268.97
101279.37
101287.7
101292.87
101294.57
101293.12
101289.39
101283.98
101276.84
101267.41
101255.7
101242.29
101227.73
101212.78
101198.32
101184.71
101177
101167.91
101171.56
101146.18
100809.57
101192.73
100933.36
101113.72
100987.94
101072.79
101013.43
101049.08
101021.64
101033.31
101018.63
101019.7
101012.91
101011.36
101004.28
100998.09
100988.03
100976.46
100961.48
100945.27
100939.7
100907.44
100906.62
100908.91
100924.39
100941.1
100979.35
101015.07
101065.84
101103.45
101125.21
101147.53
101166.4
101183.22
101198.71
101213.08
101226.35
101238.2
101248.79
101259.1
101269.78
101280.02
101288.2
101293.23
101294.83
101293.3
101289.51
101284.06
101276.9
101267.46
101255.74
101242.32
101227.76
101212.78
101198.31
101184.77
101177.07
101167.87
101171.99
101146.02
100809.51
101192.7
100933.18
101113.73
100987.54
101072.69
101012.8
101048.75
101020.78
101032.62
101017.55
101018.72
101009.42
101011.83
101004.95
100998.38
100987.82
100975.68
100961.03
100943.02
100925.79
100916.68
100889.3
100887.7
100904.24
100918.55
100956.79
100990.85
101046.5
101086.15
101109.77
101133.62
101153.55
101170.95
101186.78
101201.54
101215.4
101228.24
101239.69
101249.91
101259.93
101270.43
101280.53
101288.58
101293.51
101295.04
101293.44
101289.61
101284.13
101276.95
101267.5
101255.77
101242.34
101227.77
101212.78
101198.36
101184.96
101177.17
101168
101171.86
101145.98
100809.39
101192.63
100933.06
101113.69
100987.22
101072.55
101012.25
101048.4
101020.02
101031.98
101016.51
101017.68
101008.68
101005.67
101005.6
100999.19
100988.16
100975.47
100960.14
100942.41
100922.94
100902.52
100896.61
100867.18
100881.23
100895.13
100934.04
100965.4
101025.98
101067.54
101093.32
101119.09
101140.38
101158.56
101174.75
101189.7
101203.87
101217.3
101229.79
101240.9
101250.8
101260.59
101270.95
101280.93
101288.89
101293.74
101295.2
101293.55
101289.69
101284.18
101276.99
101267.53
101255.79
101242.36
101227.76
101212.81
101198.6
101185.29
101176.98
101167.99
101171.84
101145.94
100809.21
101192.57
100933
101113.6
100986.98
101072.35
101011.77
101048.04
101019.33
101031.36
101015.57
101016.62
101007.52
101006.07
100995.85
100999.8
100988.98
100975.8
100959.87
100941.37
100922.07
100898.81
100882.65
100871
100858.56
100868.7
100910.3
100938.99
101004.41
101047.28
101075.6
101103.71
101126.77
101146.04
101162.74
101177.87
101192.09
101205.78
101218.85
101231.05
101241.87
101251.53
101261.13
101271.36
101281.25
101289.14
101293.92
101295.32
101293.64
101289.75
101284.23
101277.02
101267.55
101255.81
101242.36
101227.79
101213.05
101199.1
101184.78
101177.02
101167.97
101171.85
101145.87
100808.95
101192.52
100932.95
101113.48
100986.8
101072.12
101011.36
101047.65
101018.7
101030.76
101014.71
101015.63
101006.13
101005.22
100998.1
100986.56
100989.44
100976.55
100960.14
100941.02
100920.88
100897.5
100878.03
100856.97
100859.58
100841.61
100883.47
100911.05
100981.99
101025.26
101056.27
101087.18
101112.49
101133.26
101150.78
101166.2
101180.42
101194.04
101207.32
101220.11
101232.06
101242.66
101252.1
101261.55
101271.68
101281.51
101289.33
101294.06
101295.43
101293.71
101289.8
101284.26
101277.05
101267.57
101255.81
101242.38
101228
101213.6
101198.44
101184.82
101177.03
101167.95
101171.86
101145.77
100808.64
101192.53
100932.91
101113.35
100986.67
101071.84
101011.01
101047.22
101018.11
101030.14
101013.9
101014.68
101004.84
101003.64
100997.53
100991.2
100973.01
100976.82
100960.79
100941.22
100920.42
100896.12
100876.18
100851.1
100846.2
100836.46
100855.83
100879.6
100958.06
101001.55
101035.1
101069.09
101097.21
101119.99
101138.75
101154.73
101169.04
101182.49
101195.61
101208.57
101221.12
101232.88
101243.29
101252.57
101261.89
101271.95
101281.71
101289.48
101294.17
101295.51
101293.77
101289.84
101284.29
101277.06
101267.57
101255.83
101242.55
101228.5
101212.93
101198.46
101184.85
101177.01
101167.94
101171.88
101145.63
100808.31
101192.6
100932.85
101113.23
100986.58
101071.54
101010.7
101046.77
101017.57
101029.51
101013.13
101013.75
101003.63
101002.16
100995.61
100990.84
100980.11
100957.75
100960.86
100941.77
100920.56
100895.54
100874.58
100848.37
100839.47
100822.08
100848.85
100845.73
100930.51
100975.51
101012.18
101049.06
101080.53
101105.9
101126.38
101143.33
101157.98
101171.32
101184.17
101196.88
101209.58
101221.94
101233.54
101243.8
101252.94
101262.16
101272.15
101281.87
101289.61
101294.26
101295.57
101293.82
101289.87
101284.31
101277.07
101267.59
101255.96
101242.96
101227.92
101212.93
101198.5
101184.83
101177
101167.91
101171.89
101145.44
100808.01
101192.75
100932.77
101113.14
100986.49
101071.23
101010.44
101046.28
101017.05
101028.85
101012.37
101012.81
101002.44
101000.78
100993.9
100988.55
100979.7
100967.04
100939.61
100941.67
100921.06
100895.68
100873.9
100846.37
100835.93
100813.56
100835.81
100829.37
100900.43
100944.85
100986.91
101027.03
101061.93
101090.6
101113.36
101131.76
101147.13
101160.64
101173.18
101185.52
101197.9
101210.39
101222.6
101234.07
101244.2
101253.23
101262.38
101272.32
101282
101289.7
101294.34
101295.62
101293.85
101289.89
101284.32
101277.09
101267.7
101256.29
101242.49
101227.91
101212.98
101198.5
101184.81
101176.98
101167.88
101171.89
101145.18
100807.76
101192.96
100932.66
101113.1
100986.4
101070.94
101010.2
101045.77
101016.57
101028.17
101011.63
101011.84
101001.26
100999.38
100992.36
100986.67
100976.96
100966.37
100950.58
100918.67
100920.83
100896.21
100874.1
100845.56
100833.55
100808.4
100827.17
100812.99
100885.75
100909.84
100956.62
101002.53
101041.22
101073.54
101099.33
101119.68
101136.24
101150.27
101162.82
101174.69
101186.61
101198.72
101211.03
101223.12
101234.49
101244.53
101253.47
101262.55
101272.45
101282.11
101289.78
101294.39
101295.66
101293.88
101289.9
101284.33
101277.2
101267.99
101255.92
101242.48
101227.96
101212.99
101198.49
101184.79
101176.96
101167.84
101171.88
101144.89
100807.63
101193.21
100932.54
101113.1
100986.3
101070.66
101009.98
101045.26
101016.11
101027.46
101010.9
101010.85
101000.05
100997.95
100990.8
100984.99
100974.94
100963.21
100949.51
100930.58
100896.4
100895.94
100874.8
100845.95
100832.64
100804.96
100821.47
100801.09
100872.42
100888.41
100921.04
100972.4
101018.16
101054.27
101083.8
101106.76
101124.97
101139.96
101152.84
101164.58
101175.91
101187.48
101199.37
101211.55
101223.55
101234.83
101244.79
101253.66
101262.69
101272.56
101282.19
101289.85
101294.44
101295.69
101293.89
101289.92
101284.45
101277.48
101267.67
101255.92
101242.53
101227.98
101213
101198.48
101184.77
101176.95
101167.79
101171.84
101144.57
100807.64
101193.47
100932.43
101113.15
100986.18
101070.43
101009.76
101044.76
101015.68
101026.74
101010.18
101009.83
100998.82
100996.46
100989.19
100983.26
100973.13
100961.03
100945.95
100929.1
100908.42
100870.27
100874.62
100847.07
100833.38
100803.56
100817.56
100792.47
100862.36
100869.71
100899.63
100935.01
100989.35
101032.96
101065.99
101092.66
101113
101129.37
101143.02
101154.94
101166
101176.89
101188.17
101199.9
101211.97
101223.88
101235.1
101244.99
101253.81
101262.8
101272.64
101282.25
101289.9
101294.47
101295.71
101293.91
101290.05
101284.75
101277.17
101267.67
101255.96
101242.56
101228.01
101213.01
101198.49
101184.76
101176.94
101167.72
101171.78
101144.26
100807.84
101193.72
100932.36
101113.24
100986.04
101070.23
101009.54
101044.27
101015.25
101026.01
101009.46
101008.79
100997.57
100994.91
100987.5
100981.43
100971.21
100959.05
100943.6
100925.16
100906.64
100881.47
100847.9
100847.28
100835.27
100804.6
100815.88
100786.09
100854.81
100855.31
100881.26
100910.27
100951.65
101006.3
101046.56
101076.28
101100.19
101118.2
101133
101145.52
101156.64
101167.15
101177.67
101188.73
101200.32
101212.3
101224.15
101235.32
101245.16
101253.93
101262.89
101272.71
101282.31
101289.93
101294.49
101295.73
101294.03
101290.35
101284.43
101277.17
101267.71
101256
101242.6
101228.05
101213.04
101198.51
101184.76
101176.94
101167.65
101171.69
101143.99
100808.26
101193.92
100932.35
101113.34
100985.9
101070.08
101009.31
101043.83
101014.84
101025.29
101008.76
101007.74
100996.29
100993.28
100985.74
100979.51
100969.18
100956.9
100941.39
100922.57
100902.36
100879.54
100857.3
100819.41
100836.29
100807.78
100817.42
100782.42
100848.9
100844.14
100867.2
100889.72
100925.34
100968.71
101022.83
101058.66
101085.19
101106.5
101122.51
101135.99
101147.56
101158.02
101168.08
101178.3
101189.18
101200.65
101212.57
101224.37
101235.5
101245.29
101254.02
101262.96
101272.76
101282.35
101289.95
101294.52
101295.86
101294.33
101290.03
101284.43
101277.22
101267.75
101256.04
101242.65
101228.11
101213.1
101198.57
101184.79
101176.94
101167.57
101171.6
101143.77
100808.93
101194.04
100932.45
101113.44
100985.76
101069.96
101009.08
101043.42
101014.43
101024.59
101008.07
101006.68
100995
100991.6
100983.9
100977.48
100967.05
100954.62
100938.97
100920.07
100899.46
100874.93
100855.49
100825.99
100807.38
100810.48
100822.54
100783.21
100845.06
100835.18
100856.27
100873.41
100904.15
100940.76
100985.44
101038.65
101069.16
101092.82
101111.75
101126.06
101138.44
101149.22
101159.13
101168.82
101178.8
101189.53
101200.92
101212.78
101224.55
101235.64
101245.4
101254.1
101263.02
101272.8
101282.37
101289.98
101294.65
101296.16
101294.02
101290.03
101284.48
101277.26
101267.79
101256.09
101242.72
101228.2
101213.19
101198.65
101184.84
101176.95
101167.49
101171.52
101143.61
100809.88
101194.04
100932.68
101113.51
100985.67
101069.86
101008.84
101043.04
101014.03
101023.92
101007.39
101005.65
100993.72
100989.88
100981.98
100975.34
100964.77
100952.19
100936.36
100917.29
100896.58
100871.6
100850.64
100824.41
100810.11
100779.99
100828.19
100790.36
100846.05
100828.08
100847.47
100860.33
100887.06
100918.7
100956.96
101000.94
101053.54
101078.1
101099.29
101116.08
101128.98
101140.43
101150.57
101160.03
101169.42
101179.2
101189.81
101201.13
101212.95
101224.68
101235.75
101245.48
101254.16
101263.06
101272.82
101282.39
101290.13
101294.97
101295.85
101294.02
101290.08
101284.52
101277.31
101267.85
101256.18
101242.83
101228.32
101213.32
101198.76
101184.9
101176.95
101167.43
101171.45
101143.5
100811.17
101193.92
100933.1
101113.52
100985.63
101069.75
101008.61
101042.7
101013.64
101023.29
101006.74
101004.65
100992.46
100988.14
100980
100973.09
100962.36
100949.58
100933.57
100914.27
100893.34
100868.25
100846.81
100819.35
100809.16
100777.54
100796.39
100800.79
100856.68
100823.33
100840.36
100849.66
100873.17
100900.35
100934.74
100973.26
101014.55
101067.31
101085.66
101104.71
101119.64
101131.37
101142.04
101151.65
101160.75
101169.89
101179.52
101190.04
101201.3
101213.09
101224.8
101235.84
101245.55
101254.21
101263.08
101272.85
101282.55
101290.48
101294.64
101295.86
101294.09
101290.14
101284.58
101277.38
101267.94
101256.29
101242.97
101228.49
101213.47
101198.89
101184.97
101176.95
101167.37
101171.4
101143.43
100813.12
101193.71
100933.74
101113.44
100985.67
101069.63
101008.4
101042.38
101013.26
101022.7
101006.11
101003.69
100991.25
100986.41
100978
100970.77
100959.82
100946.8
100930.55
100910.99
100889.78
100864.45
100842.89
100814.88
100804.26
100776.88
100787.81
100767.16
100875.58
100822.22
100835.38
100840.95
100861.77
100885.07
100915.71
100951.35
100989.46
101026.04
101079.78
101092.03
101109.23
101122.56
101133.31
101143.35
101152.52
101161.33
101170.27
101179.78
101190.22
101201.44
101213.2
101224.89
101235.91
101245.6
101254.24
101263.11
101273.02
101282.95
101290.12
101294.66
101295.93
101294.16
101290.21
101284.67
101277.48
101268.06
101256.44
101243.14
101228.67
101213.64
101199.01
101185.02
101176.95
101167.33
101171.38
101143.38
100816.15
101193.39
100934.61
101113.27
100985.85
101069.47
101008.23
101042.07
101012.89
101022.14
101005.5
101002.79
100990.09
100984.73
100976.01
100968.42
100957.19
100943.86
100927.3
100907.42
100885.86