/*--------------------------------*- C++ -*----------------------------------*\
| =========                 |                                                 |
| \\      /  F ield         | OpenFOAM: The Open Source CFD Toolbox           |
|  \\    /   O peration     | Version:  2206                                  |
|   \\  /    A nd           | Website:  www.openfoam.com                      |
|    \\/     M anipulation  |                                                 |
\*---------------------------------------------------------------------------*/
FoamFile
{
    version     2.0;
    format      ascii;
    arch        "LSB;label=32;scalar=64";
    class       surfaceScalarField;
    location    "0.0452892";
    object      phi;
}
// * * * * * * * * * * * * * * * * * * * * * * * * * * * * * * * * * * * * * //

dimensions      [1 0 -1 0 0 0 0];

oriented        oriented;

internalField   nonuniform List<scalar> 
39229
(
-4.3204545
-1.8665314
-4.3194197
-1.6944099
-4.2709739
-1.8742862
-4.3183246
-1.5659366
-4.2682755
-1.6959792
-4.2281729
-1.8861359
-4.3210792
-1.438842
-4.270835
-1.5627269
-4.2226058
-1.6998384
-4.2086487
-1.8991269
-4.3267377
-1.3234463
-4.2794812
-1.4300449
-4.2247508
-1.559493
-4.2021337
-1.704617
-4.1950522
-1.9141195
-4.3351673
-1.2170817
-4.2935313
-1.3097461
-4.2357534
-1.4185832
-4.2059779
-1.55462
-4.1858908
-1.7117228
-4.1870607
-1.9303222
-4.3454357
-1.1212508
-4.3115422
-1.1996838
-4.2540994
-1.2916404
-4.2207186
-1.4034889
-4.1882604
-1.5508748
-4.1760235
-1.7204206
-4.1790092
-1.9483762
-4.3568539
-1.0354587
-4.3314786
-1.101993
-4.2773894
-1.1771129
-4.2440757
-1.26867
-4.2031685
-1.3879295
-4.1774601
-1.5477896
-4.1652857
-1.7315913
-4.1705277
-1.96843
-4.3688349
-0.95887744
-4.3518768
-1.0157963
-4.3029317
-1.0774422
-4.2726776
-1.1494047
-4.2280192
-1.2439639
-4.1929026
-1.3716304
-4.1653776
-1.5457892
-4.1545694
-1.7449411
-4.1617169
-1.9902912
-4.3807403
-0.89035288
-4.3717522
-0.94003808
-4.3288137
-0.99123732
-4.3032125
-1.0480464
-4.2589335
-1.1192496
-4.2195948
-1.2172235
-4.1808724
-1.3550029
-4.1542732
-1.5440455
-4.1442589
-1.759929
-4.1533969
-2.0134178
-4.3920491
-0.82850848
-4.3906034
-0.87265359
-4.354024
-0.91664352
-4.3334386
-0.96240401
-4.2921974
-1.0159092
-4.2531805
-1.086283
-4.2086909
-1.1890008
-4.1704863
-1.3373775
-4.1442878
-1.541955
-4.135249
-1.775847
-4.1463525
-2.0372543
-4.4025197
-0.77235434
-4.4081146
-0.81218216
-4.3780037
-0.85082689
-4.3623106
-0.88936626
-4.3252568
-0.93086346
-4.2894683
-0.98065948
-4.2439785
-1.0512595
-4.199716
-1.1589739
-4.1613579
-1.31866
-4.1359145
-1.5393027
-4.1280591
-1.7922124
-4.1411124
-2.061402
-4.4120235
-0.72085847
-4.4242715
-0.75737973
-4.4004924
-0.79207345
-4.3894054
-0.8254735
-4.3568696
-0.85955905
-4.3255305
-0.89616935
-4.2822854
-0.94312863
-4.2367414
-1.0140758
-4.1917091
-1.1274618
-4.1536864
-1.2991106
-4.1292226
-1.5363228
-4.1228403
-1.8088803
-4.1379372
-2.0856959
-4.4205314
-0.6731193
-4.4391343
-0.70710751
-4.4213719
-0.73895345
-4.4146339
-0.76862545
-4.3865882
-0.79780005
-4.359856
-0.82681571
-4.3204584
-0.8591057
-4.2769884
-0.90327851
-4.2299792
-0.97524186
-4.1848029
-1.094934
-4.1473186
-1.2792464
-4.1240897
-1.5334939
-4.1195244
-1.8260045
-4.1368865
-2.1102032
-4.428141
-0.62853212
-4.4527831
-0.66048468
-4.440573
-0.69026088
-4.4380717
-0.71724417
-4.4143259
-0.74305872
-4.3918881
-0.76749186
-4.3568058
-0.79179586
-4.3171986
-0.81957626
-4.2715891
-0.8616545
-4.22391
-0.93523699
-4.1787698
-1.0619654
-4.1420488
-1.2596365
-4.1203337
-1.5313663
-4.1179565
-1.8439273
-4.1379211
-2.135136
-4.4349878
-0.58675673
-4.4653055
-0.61693901
-4.4580904
-0.64510631
-4.4597871
-0.67011715
-4.440115
-0.6936153
-4.4215682
-0.71515706
-4.3906794
-0.73509699
-4.3555279
-0.75431399
-4.3132619
-0.77814313
-4.2664899
-0.81866954
-4.218287
-0.89462041
-4.173388
-1.0291286
-4.1376763
-1.2408156
-4.1177732
-1.530472
-4.1179728
-1.863122
-4.1409705
-2.1608178
-4.4411706
-0.54759547
-4.4767839
-0.57613032
-4.4740069
-0.60291621
-4.4798363
-0.62643398
-4.4639505
-0.64828325
-4.4490082
-0.66789501
-4.4219939
-0.68538038
-4.3912509
-0.70033498
-4.3530378
-0.71487864
-4.3092804
-0.73515194
-4.2614338
-0.774815
-4.2129025
-0.8539181
-4.1684677
-0.99692906
-4.1340226
-1.2232632
-4.1162414
-1.5313417
-4.1194339
-1.8841695
-4.1459951
-2.1876384
-4.4467719
-0.51092008
-4.4872829
-0.53786316
-4.4884346
-0.56335462
-4.4982811
-0.58566989
-4.4858343
-0.60631553
-4.4742817
-0.62455384
-4.4508585
-0.64051935
-4.4242241
-0.65339164
-4.3901561
-0.66363414
-4.3502277
-0.67374678
-4.3049722
-0.69106248
-4.2562329
-0.7305893
-4.2075768
-0.8135966
-4.1638369
-0.96581073
-4.1309254
-1.2074132
-4.1156008
-1.5345061
-4.1222517
-1.9076985
-4.1530165
-2.216008
-4.4518684
-0.47662462
-4.4968775
-0.50200531
-4.5014757
-0.52623263
-4.5151686
-0.54750538
-4.5058121
-0.56721171
-4.4974553
-0.58445233
-4.4773584
-0.5993769
-4.4545527
-0.6111141
-4.4244187
-0.61953636
-4.3885329
-0.62516903
-4.3467528
-0.63132764
-4.3001529
-0.6463654
-4.2507147
-0.68646349
-4.2021472
-0.77407529
-4.1593436
-0.93615877
-4.1282434
-1.1936992
-4.115749
-1.5405298
-4.1263904
-1.9343855
-4.162158
-2.246341
-4.4565196
-0.44459105
-4.5056403
-0.46844885
-4.5132325
-0.49143172
-4.5305324
-0.51174517
-4.5239412
-0.53066506
-4.5186061
-0.54714751
-4.5015712
-0.5613348
-4.482364
-0.57233079
-4.4559178
-0.57995087
-4.4239453
-0.58393083
-4.3859441
-0.5853144
-4.3424365
-0.58806583
-4.2946428
-0.60153232
-4.2447138
-0.64284303
-4.1964591
-0.73573967
-4.154843
-0.90834055
-4.1258577
-1.182582
-4.1166207
-1.5500119
-4.1318978
-1.9649547
-4.1736884
-2.2790544
-4.4607784
-0.41469037
-4.5136401
-0.4370812
-4.5238124
-0.45884567
-4.5444358
-0.47825469
-4.5402784
-0.49647349
-4.5378073
-0.51235219
-4.5235905
-0.52600745
-4.507788
-0.53647242
-4.4848167
-0.54362911
-4.4565393
-0.54707769
-4.4222467
-0.54689299
-4.3822147
-0.54447237
-4.3371012
-0.5443923
-4.2882651
-0.5569722
-4.2380616
-0.60013304
-4.1903649
-0.69895087
-4.150209
-0.882746
-4.1236733
-1.1745667
-4.1182064
-1.563583
-4.138937
-2.0001758
-4.1881031
-2.3145647
-4.4646975
-0.38678271
-4.5209553
-0.40777167
-4.5333204
-0.4283669
-4.5569638
-0.44691051
-4.5549048
-0.46449254
-4.5551213
-0.47986147
-4.5435079
-0.49312821
-4.5309518
-0.50322753
-4.511284
-0.51004702
-4.4865062
-0.51326957
-4.455709
-0.51277957
-4.4191427
-0.50879458
-4.3771564
-0.50306382
-4.330564
-0.50071476
-4.2808521
-0.51307304
-4.230592
-0.55872185
-4.1837228
-0.66409643
-4.1453284
-0.85982598
-4.121628
-1.1702379
-4.1205795
-1.5819388
-4.1478629
-2.0409254
-4.2062519
-2.3532649
-4.4683264
-0.36073507
-4.5276597
-0.38038745
-4.5418584
-0.39986964
-4.5682173
-0.41758832
-4.5679287
-0.43458047
-4.5706419
-0.44950827
-4.5614092
-0.46248594
-4.5519646
-0.47236024
-4.5354826
-0.47894923
-4.5140544
-0.48200122
-4.4865491
-0.48151534
-4.4532443
-0.47739497
-4.4144286
-0.47003343
-4.3705709
-0.46148675
-4.3226248
-0.45744598
-4.2722305
-0.47019759
-4.2221475
-0.51901302
-4.1764019
-0.63161006
-4.1401102
-0.84009189
-4.1197131
-1.1702796
-4.1239588
-1.6059006
-4.1593654
-2.0882342
-4.2294924
-2.3954109
-4.4717094
-0.33642727
-4.5338246
-0.35480177
-4.5495277
-0.3732206
-4.5783108
-0.39014833
-4.5794749
-0.40659597
-4.5844962
-0.42112941
-4.5773986
-0.43389803
-4.5709146
-0.44366298
-4.5575393
-0.45013991
-4.5393749
-0.45307251
-4.5150042
-0.45259595
-4.4847571
-0.44868436
-4.4489209
-0.4413056
-4.4078901
-0.43098842
-4.362241
-0.42013436
-4.313072
-0.41501089
-4.2622146
-0.4287532
-4.2125713
-0.48144844
-4.1682803
-0.60199404
-4.1344889
-0.82411352
-4.1179876
-1.1755018
-4.1287979
-1.6365051
-4.1747346
-2.1431827
-4.2597188
-2.4407396
-4.474882
-0.3137535
-4.5395152
-0.33090164
-4.5564264
-0.34829577
-4.587359
-0.3644587
-4.5896714
-0.3803911
-4.5968285
-0.3945639
-4.5916151
-0.40717941
-4.5878992
-0.41693858
-4.5775519
-0.42342469
-4.5626128
-0.42632244
-4.5412824
-0.42585515
-4.5139425
-0.42212885
-4.480887
-0.41513824
-4.4425083
-0.40487752
-4.3992912
-0.39204383
-4.351937
-0.37938452
-4.301681
-0.37383594
-4.2505939
-0.38922389
-4.2017038
-0.44654393
-4.1592512
-0.57579555
-4.128435
-0.81254104
-4.1166454
-1.186965
-4.1359521
-1.6752084
-4.1962639
-2.2064368
-4.299024
-2.4874708
-4.4778755
-0.29261614
-4.5447899
-0.30858803
-4.5626462
-0.3249867
-4.5954767
-0.34039513
-4.5986551
-0.35582494
-4.607788
-0.36965256
-4.6042142
-0.38215021
-4.6030481
-0.391984
-4.595605
-0.39860488
-4.5838805
-0.40157282
-4.5655399
-0.40116151
-4.5410141
-0.39757782
-4.5105977
-0.39094466
-4.4746847
-0.38123263
-4.4337527
-0.36848653
-4.3883793
-0.35357601
-4.3394041
-0.33963273
-4.2882283
-0.33437513
-4.2371582
-0.35216946
-4.1893947
-0.41486738
-4.1492185
-0.55358606
-4.1219779
-0.80612735
-4.1161443
-1.2061356
-4.1470934
-1.7240754
-4.2275722
-2.2772994
-4.3484211
-2.531547
-4.4806937
-0.27292617
-4.5496987
-0.28777113
-4.5682695
-0.30320089
-4.6027681
-0.31785917
-4.6065556
-0.3327769
-4.6175191
-0.34625987
-4.6153486
-0.35864536
-4.6165137
-0.36859645
-4.6118033
-0.37547193
-4.6032624
-0.37863241
-4.5879009
-0.37835637
-4.5661322
-0.37492104
-4.5382632
-0.3685662
-4.5046936
-0.35938633
-4.4658816
-0.34733495
-4.4223804
-0.33249418
-4.3748701
-0.31596352
-4.3243573
-0.3013356
-4.2724706
-0.29714518
-4.2217108
-0.3182013
-4.175493
-0.38701658
-4.1381112
-0.53598804
-4.1152743
-0.80582809
-4.1174618
-1.2351454
-4.1653583
-1.7857116
-4.2729377
-2.3518978
-4.4059737
-2.5669482
-4.4833701
-0.25459543
-4.5542873
-0.26836686
-4.5733658
-0.28285771
-4.6093274
-0.29676617
-4.6134943
-0.31115302
-4.6261539
-0.32427216
-4.6251756
-0.33652548
-4.6284466
-0.3466011
-4.626261
-0.35381753
-4.6208493
-0.35729762
-4.6084568
-0.35725803
-4.589432
-0.35401971
-4.5640462
-0.34790737
-4.5327357
-0.33915153
-4.4959426
-0.32780802
-4.4541768
-0.31379015
-4.4080741
-0.2972584
-4.358441
-0.27961693
-4.3064775
-0.26505673
-4.2541193
-0.26278107
-4.2040364
-0.2879734
-4.1598519
-0.36360488
-4.1259227
-0.52374207
-4.1087509
-0.81316794
-4.122602
-1.2772638
-4.1960114
-1.8618236
-4.3340613
-2.4227185
-4.4664709
-2.587655
-4.4859083
-0.23753783
-4.55858
-0.25029194
-4.5779943
-0.26388037
-4.6152387
-0.27704182
-4.6195836
-0.29087239
-4.6338147
-0.30360077
-4.6338371
-0.31568653
-4.6390039
-0.32585371
-4.6390929
-0.33345441
-4.6367381
-0.33736445
-4.6272917
-0.33767598
-4.611014
-0.33470731
-4.5880861
-0.32885507
-4.5589691
-0.3204415
-4.5241221
-0.30966818
-4.4840152
-0.29653362
-4.4392207
-0.28092651
-4.3904652
-0.26315831
-4.3387231
-0.24502382
-4.2854457
-0.23142237
-4.2328726
-0.23200026
-4.1839072
-0.26216735
-4.1423522
-0.34529715
-4.1127738
-0.51784958
-4.1033671
-0.83071291
-4.1354549
-1.3371973
-4.2452997
-1.9495539
-4.4093907
-2.4782714
-4.5233684
-2.5907655
-4.4883138
-0.2216695
-4.5626226
-0.23346798
-4.5822027
-0.24619331
-4.6205724
-0.25861992
-4.624921
-0.27187297
-4.6406053
-0.28417802
-4.641461
-0.29604859
-4.6483351
-0.30625086
-4.6504183
-0.31423362
-4.6510134
-0.31864919
-4.6444934
-0.31941759
-4.6309658
-0.31680653
-4.6104964
-0.31125753
-4.5835384
-0.30316507
-4.5505743
-0.29283504
-4.5120659
-0.28041927
-4.4685246
-0.26586026
-4.4205932
-0.24907984
-4.3691195
-0.23064208
-4.3152916
-0.21280993
-4.2608823
-0.20114491
-4.2084073
-0.20556474
-4.1610975
-0.24149979
-4.1229402
-0.33290883
-4.0990686
-0.51990874
-4.1011763
-0.86294742
-4.1627371
-1.4192085
-4.3189741
-2.0389183
-4.4881973
-2.5116024
-2.6094374
-2.5954605
-4.490591
-0.20690723
-4.5664379
-0.21781095
-4.5860359
-0.22972224
-4.6253917
-0.24143027
-4.6295972
-0.25409203
-4.6466223
-0.26594601
-4.6481612
-0.27755327
-4.6565806
-0.28771913
-4.660367
-0.29604126
-4.6637634
-0.30099781
-4.6601442
-0.30230444
-4.6493765
-0.30013953
-4.6313698
-0.29495524
-4.6065654
-0.28719674
-4.5754432
-0.27724427
-4.5384796
-0.26537099
-4.4961442
-0.25167371
-4.4490034
-0.23608059
-4.3977969
-0.21863934
-4.3435388
-0.2002443
-4.2876596
-0.18369694
-4.2323222
-0.17502892
-4.1803688
-0.18427627
-4.1354012
-0.22678915
-4.1017144
-0.3275864
-4.0857806
-0.53270051
-4.1062131
-0.91745436
-4.2143789
-1.5232641
-4.4105885
-2.1156721
-2.5946634
-2.5253932
-2.0966121
-2.5971932
-4.492744
-0.19317127
-4.5700465
-0.20324309
-4.5895191
-0.21439072
-4.6297496
-0.22540679
-4.6336882
-0.23747127
-4.6519507
-0.24885028
-4.6540403
-0.26014926
-4.6638682
-0.27020772
-4.6690695
-0.27879631
-4.6750783
-0.28429121
-4.6743157
-0.28618962
-4.6663273
-0.28454268
-4.6507941
-0.27978833
-4.628154
-0.27239465
-4.5988637
-0.26279915
-4.5634022
-0.25135462
-4.5222326
-0.2382936
-4.475849
-0.22368929
-4.4248967
-0.20753198
-4.3702546
-0.19008404
-4.3131325
-0.17260429
-4.2552725
-0.15844123
-4.1992559
-0.15392523
-4.148382
-0.16902406
-4.1066984
-0.21907506
-4.0790695
-0.33115028
-4.074897
-0.5611582
-4.127071
-1.0034358
-4.2952299
-1.6381933
-2.5583121
-2.1518515
-2.0907872
-2.5305655
-1.6824116
-2.5977117
-4.4947791
-0.1803864
-4.5734681
-0.18968797
-4.5926896
-0.20012436
-4.6336951
-0.21047677
-4.6372665
-0.22194681
-4.6566704
-0.23283612
-4.6591891
-0.2437914
-4.6703112
-0.25367553
-4.6766595
-0.26244113
-4.6850553
-0.26843865
-4.6870796
-0.27095291
-4.6818944
-0.26987352
-4.6688552
-0.26560758
-4.6483972
-0.25861922
-4.6209508
-0.24938381
-4.5869766
-0.23831156
-4.5469377
-0.22572368
-4.5012894
-0.21183743
-4.4505756
-0.19676612
-4.3955597
-0.1806407
-4.3372853
-0.1639927
-4.2771951
-0.14847826
-4.2174474
-0.13789553
-4.1611123
-0.13878172
-4.1121081
-0.16089544
-4.0750423
-0.21981082
-4.0559544
-0.34662092
-4.0713156
-0.61414042
-4.1751276
-1.1233883
-2.4950757
-1.7012779
-2.0689579
-2.1736516
-1.6809824
-2.5315705
-1.348942
-2.5977514
-4.496702
-0.16848294
-4.5767157
-0.17707181
-4.5955712
-0.18684843
-4.6372711
-0.19657268
-4.6403923
-0.2074583
-4.6608484
-0.21785097
-4.6636886
-0.22843304
-4.6760097
-0.23808745
-4.6832679
-0.24693439
-4.693803
-0.25336922
-4.6985069
-0.25650146
-4.6961456
-0.25601919
-4.6856267
-0.2522858
-4.6673797
-0.2457426
-4.6418037
-0.23688116
-4.6093311
-0.22615621
-4.5704109
-0.21394684
-4.52548
-0.20056808
-4.4750061
-0.18627639
-4.4196244
-0.17129304
-4.360238
-0.15593733
-4.2980878
-0.14102862
-4.2349255
-0.12866487
-4.173413
-0.12302695
-4.1173136
-0.13075749
-4.0713331
-0.16131259
-4.0407818
-0.23120396
-4.03517
-0.37932384
-4.0837303
-0.70338232
-2.4183347
-1.2004077
-2.0235957
-1.7465819
-1.6684454
-2.1862383
-1.3494517
-2.5307884
-1.0809856
-2.5976079
-4.4985181
-0.15739471
-4.5798042
-0.16532555
-4.5981826
-0.17449186
-4.640504
-0.18362625
-4.6431244
-0.19393873
-4.6645487
-0.20383738
-4.6676153
-0.21402489
-4.6810543
-0.2234055
-4.6890194
-0.23224309
-4.7014351
-0.23903337
-4.708669
-0.24276214
-4.7091439
-0.24288955
-4.7011763
-0.23971671
-4.6851777
-0.23365235
-4.6615099
-0.2251852
-4.6305741
-0.2147969
-4.5927896
-0.20291482
-4.5485754
-0.18991152
-4.4983515
-0.1761456
-4.4426369
-0.16197371
-4.3821789
-0.14776666
-4.3180446
-0.13405325
-4.2517194
-0.12197429
-4.185373
-0.11410321
-4.1223509
-0.11503173
-4.0673787
-0.13135681
-4.0259783
-0.17227713
-4.0058447
-0.25655444
-4.0216105
-0.43861228
-2.349635
-0.77153233
-1.9602512
-1.2639323
-1.6373553
-1.7776788
-1.3423695
-2.1934179
-1.0822438
-2.5293553
-0.86592327
-2.5974057
-4.5002346
-0.14705764
-4.5827452
-0.15438538
-4.6005455
-0.16298722
-4.643434
-0.17156926
-4.6455046
-0.18132769
-4.6678241
-0.19073984
-4.6710363
-0.20051923
-4.6855198
-0.20959477
-4.694025
-0.21834242
-4.7080701
-0.22539291
-4.7176439
-0.22967717
-4.7209507
-0.23041069
-4.7155639
-0.22781645
-4.7018562
-0.22225626
-4.6801449
-0.21420218
-4.6507965
-0.2041507
-4.6141898
-0.1925635
-4.5707181
-0.17985812
-4.5207679
-0.16645033
-4.4647674
-0.15279997
-4.4033095
-0.13940121
-4.3372786
-0.126783
-4.2679407
-0.11570307
-4.1970972
-0.10771038
-4.1275031
-0.10596306
-4.0635035
-0.11547123
-4.0108833
-0.14259068
-3.9774999
-0.19649178
-3.9728193
-0.3017644
-2.2998893
-0.48730937
-1.8955701
-0.83616615
-1.588157
-1.3132369
-1.3214552
-1.7986423
-1.0782723
-2.1975065
-0.8673799
-2.5277856
-0.69345063
-2.5971964
-4.5018626
-0.13741186
-4.585543
-0.14419343
-4.6026785
-0.15227193
-4.6460847
-0.16033973
-4.6475907
-0.16956304
-4.670724
-0.17850066
-4.6740135
-0.18786596
-4.6894747
-0.19661386
-4.6983867
-0.20520554
-4.7138259
-0.21241968
-4.725514
-0.21720182
-4.7316243
-0.21852631
-4.7288407
-0.21651751
-4.7174715
-0.21147886
-4.6977699
-0.20385826
-4.670071
-0.19414655
-4.6347056
-0.18283343
-4.5920283
-0.17037323
-4.5423942
-0.15722119
-4.4861669
-0.143892
-4.4238029
-0.13097959
-4.3559937
-0.11912367
-4.2837922
-0.10901788
-4.2087077
-0.10171025
-4.1329933
-0.099322597
-4.0602891
-0.1057714
-3.9961272
-0.1263854
-3.9488763
-0.16710227
-3.9273886
-0.23800436
-2.2609079
-0.33921411
-1.8446693
-0.5376601
-1.5318325
-0.89267794
-1.2845674
-1.350209
-1.0642623
-1.8127236
-0.86516228
-2.1998432
-0.69486061
-2.526302
-0.55520897
-2.5970029
-4.5034198
-0.12841085
-4.5881965
-0.13469505
-4.6046007
-0.14228649
-4.6484785
-0.14987703
-4.6494146
-0.1585871
-4.6732909
-0.16706638
-4.6766027
-0.17601365
-4.6929778
-0.18442291
-4.7021909
-0.19280672
-4.7188145
-0.20009267
-4.7323671
-0.20530138
-4.7412227
-0.20719063
-4.7410537
-0.2057652
-4.7320704
-0.2012604
-4.7144357
-0.19408961
-4.6884561
-0.18472779
-4.6544097
-0.17367594
-4.6126018
-0.16142171
-4.5633482
-0.14845357
-4.5069639
-0.13531822
-4.4437993
-0.1226624
-4.3743596
-0.1112214
-4.2994653
-0.10177559
-4.2203753
-0.095227887
-4.1389458
-0.093060468
-4.058134
-0.098214864
-3.9826735
-0.11550537
-3.9208168
-0.15045947
-3.8823372
-0.20826982
-2.2250975
-0.27199035
-1.8050112
-0.37794544
-1.4832086
-0.58604381
-1.2382974
-0.93916718
-1.0370708
-1.3774694
-0.85570428
-1.8222615
-0.69363195
-2.2011849
-0.55647433
-2.5249883
-0.44445249
-2.5968316
-4.5049859
-0.11996232
-4.590716
-0.12583161
-4.606336
-0.13297185
-4.6506351
-0.14012644
-4.65101
-0.14834457
-4.6755598
-0.15638276
-4.6788527
-0.16491507
-4.6960784
-0.17298017
-4.7055131
-0.18111733
-4.7231394
-0.18839406
-4.738297
-0.19394776
-4.7498056
-0.19636573
-4.7522478
-0.19551431
-4.7456925
-0.19155045
-4.7301813
-0.18484686
-4.7059945
-0.1758479
-4.6733553
-0.16505392
-4.6325101
-0.15297638
-4.5837241
-0.14013629
-4.5272671
-0.1271048
-4.4634094
-0.11455395
-4.3924991
-0.10326798
-4.3151198
-0.094121168
-4.2322571
-0.088059728
-4.1454593
-0.086307525
-4.057155
-0.091008397
-3.9711549
-0.10620615
-3.8947676
-0.13777239
-3.838282
-0.1908479
-2.1896451
-0.24189793
-1.7699157
-0.30585938
-1.4448325
-0.41580803
-1.1946591
-0.62961207
-1.0004586
-0.9759743
-0.83577733
-1.3974549
-0.68714921
-1.828821
-0.55580636
-2.2019548
-0.44554237
-2.5238663
-0.35574235
-2.5966856
-4.5039917
-0.018877776
-4.5930277
-0.1175955
-4.6079045
-0.12427289
-4.6525622
-0.13103892
-4.6524101
-0.1387826
-4.6775618
-0.14639926
-4.6808053
-0.15452241
-4.6988227
-0.16224238
-4.7084178
-0.17010688
-4.726895
-0.17730459
-4.7433986
-0.18312177
-4.757433
-0.18602259
-4.7624635
-0.18572988
-4.7583715
-0.18230736
-4.7450375
-0.17608582
-4.7227174
-0.16746886
-4.6915773
-0.15693971
-4.6518012
-0.14502099
-4.6035903
-0.13226348
-4.5471624
-0.11926507
-4.4827244
-0.10671261
-4.4104996
-0.095407356
-4.3308555
-0.086266463
-4.2444854
-0.080324966
-4.1526249
-0.078799545
-4.0573315
-0.08339204
-3.9616758
-0.097195227
-3.8717244
-0.12567678
-3.797014
-0.17563277
-2.1549181
-0.22388391
-1.7359242
-0.27464279
-1.411888
-0.33800374
-1.1592331
-0.45098083
-0.96318528
-0.66690635
-0.80740544
-1.0044989
-0.6725303
-1.4121235
-0.5512794
-1.8334176
-0.44519168
-2.2023946
-0.35666018
-2.5229269
-0.28470863
-2.5965632
-4.5034933
-0.018382523
-4.591416
-0.020480624
-4.6093979
-0.11611009
-4.6542642
-0.12256391
-4.6536495
-0.12984908
-4.6793312
-0.13706944
-4.6825042
-0.14479097
-4.7012498
-0.15216866
-4.7109602
-0.15974251
-4.7301619
-0.16680738
-4.7477647
-0.17280568
-4.7641703
-0.17613611
-4.7717448
-0.17637824
-4.7701405
-0.17349475
-4.7590284
-0.16776865
-4.7386458
-0.15955505
-4.7090984
-0.1493076
-4.6705047
-0.13754512
-4.6229916
-0.12483816
-4.5667131
-0.11181337
-4.501816
-0.099175638
-4.4284288
-0.087730564
-4.3467367
-0.078399104
-4.2571497
-0.072255012
-4.1605427
-0.070599468
-4.0586467
-0.075051545
-3.9540421
-0.087999914
-3.8518242
-0.11372975
-3.7599125
-0.15957818
-2.1222948
-0.2067055
-1.7028649
-0.25581314
-1.3807533
-0.30493593
-1.1293251
-0.3674035
-0.9318041
-0.48226058
-0.77673034
-0.69765295
-0.65075746
-1.0263874
-0.54049183
-1.4229539
-0.44197078
-1.8366997
-0.35648992
-2.2026409
-0.28546983
-2.5221511
-0.22784096
-2.5964611
-4.5033595
-0.018016169
-4.5902317
-0.019558264
-4.6086957
-0.021184196
-4.6556852
-0.11468174
-4.6547597
-0.12149796
-4.68088
-0.12835056
-4.6839822
-0.13567683
-4.7033957
-0.14271878
-4.7131868
-0.14999188
-4.733009
-0.15688211
-4.7514891
-0.16298293
-4.7700846
-0.16668671
-4.7801349
-0.16743463
-4.7810284
-0.16508177
-4.772173
-0.15986184
-4.7537927
-0.15207453
-4.7259277
-0.14213476
-4.6886318
-0.13054045
-4.6419502
-0.11786931
-4.5859587
-0.10477188
-4.5207374
-0.091977434
-4.4463363
-0.080299638
-4.3628
-0.070648785
-4.2702842
-0.064079699
-4.169288
-0.06194039
-4.0611564
-0.065943307
-3.9480703
-0.078276482
-3.8346223
-0.10205879
-3.7271918
-0.14342208
-2.0929109
-0.18751063
-1.6717614
-0.23679532
-1.3507177
-0.28510388
-1.1017429
-0.33195242
-0.90544589
-0.39344897
-0.74988563
-0.50908421
-0.6261348
-0.72236591
-0.52383716
-1.0431289
-0.43394076
-1.4310208
-0.3541567
-1.8390854
-0.28540053
-2.2027741
-0.2284669
-2.5215151
-0.18231888
-2.5963778
-4.5035054
-0.017733674
-4.5894166
-0.018822945
-4.6084792
-0.019776136
-4.6541354
-0.02273254
-4.6558175
-0.1136635
-4.6822249
-0.12019967
-4.6852752
-0.12713629
-4.7052898
-0.13385506
-4.7151378
-0.14082184
-4.7354959
-0.14750675
-4.7546566
-0.15364179
-4.7752432
-0.15765747
-4.7876806
-0.15887584
-4.7910677
-0.15703937
-4.784491
-0.15233181
-4.7681685
-0.1449942
-4.7420679
-0.13539411
-4.706183
-0.12399433
-4.6604712
-0.11136357
-4.6049176
-0.098166624
-4.5395224
-0.085156951
-4.4642594
-0.073168498
-4.3790669
-0.063102902
-4.2838931
-0.05598024
-4.1788867
-0.053102625
-4.0649389
-0.056259786
-3.9437544
-0.067783689
-3.8196499
-0.090343492
-3.6981255
-0.12827509
-2.066946
-0.16801586
-1.6436032
-0.21472958
-1.3223945
-0.26446697
-1.0753656
-0.31099053
-0.88164401
-0.35537426
-0.72728663
-0.41586243
-0.60380358
-0.53143431
-0.50436491
-0.74192938
-0.42119446
-1.0559405
-0.34811895
-1.4370899
-0.28368194
-1.8408484
-0.22844967
-2.2028445
-0.18282854
-2.5209984
-0.14588555
-2.5963091
-4.5038656
-0.017515986
-4.5888849
-0.018257315
-4.6085964
-0.018706965
-4.65301
-0.020900052
-4.6549538
-0.023604
-4.6833338
-0.1125972
-4.686417
-0.1191314
-4.7069531
-0.12554309
-4.7168489
-0.1321995
-4.7376725
-0.13865855
-4.7573458
-0.14476707
-4.7797171
-0.14903337
-4.7944312
-0.15068215
-4.8002908
-0.14934382
-4.7960003
-0.14515018
-4.7817789
-0.13828296
-4.7575159
-0.12905714
-4.7231488
-0.11788944
-4.678544
-0.10532336
-4.6235876
-0.092021944
-4.5581847
-0.078757278
-4.4822226
-0.066389964
-4.3955517
-0.055832674
-4.2979612
-0.048072347
-4.1893058
-0.044323094
-4.07002
-0.046328893
-3.9411978
-0.056591846
-3.8067889
-0.0779827
-3.6718836
-0.11392844
-2.043744
-0.15019062
-1.6185577
-0.19218158
-1.296593
-0.23993412
-1.0504179
-0.28899933
-0.85907771
-0.33323279
-0.7072014
-0.37520461
-0.58489148
-0.43466946
-0.48616873
-0.54966665
-0.40591085
-0.75729685
-0.33833598
-1.0657741
-0.27909979
-1.4416984
-0.22716758
-1.8421675
-0.18284221
-2.2028746
-0.14629961
-2.5205793
-0.11672673
-2.5962542
-4.5043903
-0.017348067
-4.5885706
-0.017822321
-4.60897
-0.017884926
-4.6522409
-0.019474652
-4.6545398
-0.021321163
-4.6818958
-0.025050829
-4.6874724
-0.11161025
-4.7084046
-0.11774718
-4.718359
-0.12409134
-4.7395796
-0.1303141
-4.7596271
-0.13634464
-4.7835748
-0.1408022
-4.8004382
-0.14283707
-4.8087328
-0.14197282
-4.8067219
-0.13828952
-4.7946313
-0.13190971
-4.7722664
-0.12309322
-4.7395134
-0.1122026
-4.6961481
-0.09974106
-4.6419513
-0.086354067
-4.576719
-0.072818637
-4.5002349
-0.060021557
-4.4122641
-0.048901664
-4.3124673
-0.040443688
-4.2004867
-0.035769719
-4.0763388
-0.036474867
-3.9404626
-0.045060159
-3.7961971
-0.064758156
-3.6482056
-0.099212106
-2.0225865
-0.13388514
-1.595961
-0.17196983
-1.2734963
-0.21472711
-1.0275204
-0.26245616
-0.83764843
-0.3101642
-0.68830582
-0.35191326
-0.56826966
-0.39165557
-0.47064602
-0.45013631
-0.39128909
-0.5643297
-0.32637612
-0.76932884
-0.27155693
-1.0733567
-0.22365819
-1.4452299
-0.18187269
-1.8431676
-0.14632465
-2.2028854
-0.11706307
-2.5202394
-0.09339441
-2.5962088
-4.5050412
-0.017218508
-4.588423
-0.017487891
-4.6095407
-0.017252819
-4.6517465
-0.018377976
-4.6544461
-0.019574878
-4.6808834
-0.022341496
-4.6865395
-0.025999051
-4.7096334
-0.11044716
-4.7196972
-0.11646714
-4.7412478
-0.12245113
-4.7615638
-0.12835887
-4.7868837
-0.13295166
-4.8057555
-0.13532608
-4.816431
-0.13490824
-4.8166776
-0.13172651
-4.8067342
-0.12584482
-4.7863139
-0.11747032
-4.7552591
-0.10690451
-4.7132572
-0.094599358
-4.6599798
-0.081166589
-4.595104
-0.06737155
-4.51829
-0.054117149
-4.4292084
-0.042374572
-4.3273984
-0.033159784
-4.2123612
-0.027536205
-4.0837787
-0.026937159
-3.9414891
-0.033631416
-3.7880279
-0.051018551
-3.6273365
-0.083392451
-2.0033267
-0.11735956
-1.5750797
-0.15400484
-1.2525014
-0.1924643
-1.0068831
-0.2350261
-0.81780072
-0.28206868
-0.67027263
-0.32802858
-0.55273768
-0.36730125
-0.45711532
-0.40507165
-0.37873027
-0.46266837
-0.31472584
-0.57602031
-0.26220014
-0.77874579
-0.2178147
-1.0792317
-0.17916455
-1.4479563
-0.14558377
-1.8439336
-0.11709165
-2.202886
-0.093664766
-2.5199665
-0.074722241
-2.5961731
-4.5057889
-0.01711863
-4.5884031
-0.01723081
-4.6102627
-0.016766962
-4.6514637
-0.017534355
-4.6545978
-0.018232284
-4.6802171
-0.020248453
-4.6860257
-0.022868989
-4.7083807
-0.027267272
-4.720915
-0.10928624
-4.7427023
-0.11504465
-4.763214
-0.12079337
-4.7897073
-0.12547011
-4.8104379
-0.12813658
-4.8234246
-0.12813359
-4.8258945
-0.12543796
-4.8181003
-0.12006034
-4.7996552
-0.11215564
-4.7703686
-0.10196216
-4.7298408
-0.089873047
-4.6776351
-0.076451522
-4.6133035
-0.062433676
-4.5363637
-0.048723006
-4.4463783
-0.036316316
-4.342748
-0.026284026
-4.2248824
-0.01968394
-4.0921821
-0.017837487
-3.9441037
-0.022660232
-3.7822562
-0.037383067
-3.609596
-0.066726756
-1.986277
-0.09942104
-1.5557812
-0.13594972
-1.2329066
-0.17313665
-0.98800992
-0.21104227
-0.79977352
-0.25284969
-0.65338533
-0.29880851
-0.53782807
-0.34282929
-0.44454642
-0.37977255
-0.36785456
-0.41587014
-0.30466154
-0.47272246
-0.25296019
-0.58529684
-0.21048458
-0.7861253
-0.17461566
-1.0838058
-0.1434814
-1.4500738
-0.11652219
-1.8445236
-0.093694823
-2.2028796
-0.074940877
-2.5197459
-0.059783643
-2.5961436
-4.5065945
-0.01705725
-4.5884805
-0.017033586
-4.611101
-0.016393636
-4.6513437
-0.016885605
-4.6549377
-0.017200198
-4.679818
-0.018637928
-4.6858204
-0.020465982
-4.7075383
-0.023725036
-4.7199776
-0.028219039
-4.7439453
-0.10807752
-4.7646243
-0.11363568
-4.7921045
-0.11834703
-4.8145415
-0.12125602
-4.8297552
-0.12163468
-4.8344013
-0.11940575
-4.8287441
-0.11453117
-4.8122903
-0.10711743
-4.784826
-0.097340848
-4.7458681
-0.085529619
-4.6948754
-0.072187878
-4.6312726
-0.058005523
-4.5544185
-0.0438691
-4.4637526
-0.030786069
-4.3585117
-0.019881303
-4.2380229
-0.012261471
-4.101447
-0.0092150065
-3.9480795
-0.012322751
-3.7786384
-0.024425947
-3.595077
-0.050052489
-1.9717764
-0.080296039
-1.5384176
-0.1161339
-1.2145896
-0.15383167
-0.97026736
-0.19060921
-0.78320239
-0.22744856
-0.63790668
-0.26820919
-0.52368894
-0.31285481
-0.4324091
-0.35489515
-0.3578085
-0.38975142
-0.29599645
-0.4244828
-0.24494204
-0.48073939
-0.20317053
-0.59264276
-0.16885977
-0.79192137
-0.13992401
-1.0873833
-0.11487914
-1.4517291
-0.093252869
-1.8449822
-0.074968321
-2.2028713
-0.059958619
-2.5195695
-0.047829671
-2.5961202
-4.5101244
-0.10097527
-4.5886713
-0.016859076
-4.6120289
-0.016106733
-4.6513493
-0.016386761
-4.6554218
-0.016406928
-4.6796255
-0.017398935
-4.6858519
-0.018617619
-4.7070223
-0.020994176
-4.719432
-0.024283163
-4.7428319
-0.029341942
-4.7658426
-0.10686625
-4.7941283
-0.11157608
-4.8181224
-0.11467448
-4.8354648
-0.11539886
-4.84223
-0.11361331
-4.8386844
-0.10923516
-4.8242232
-0.1023266
-4.7986193
-0.093004524
-4.7613109
-0.081531906
-4.711658
-0.068344803
-4.64896
-0.054073147
-4.5724039
-0.039568167
-4.4812964
-0.025825921
-4.3746703
-0.01402391
-4.2517846
-0.0053187769
-4.1114832
-0.0011113695
-3.9532872
-0.0026054788
-3.7767666
-0.012489976
-3.5835297
-0.03428578
-1.9599205
-0.061063889
-1.5233719
-0.094752205
-1.1979055
-0.1324151
-0.95353021
-0.17031047
-0.76754289
-0.20612127
-0.62361074
-0.24166058
-0.51058937
-0.28124176
-0.42074248
-0.32446239
-0.34805491
-0.36460075
-0.28803548
-0.39766529
-0.23807372
-0.43131516
-0.19680165
-0.48711157
-0.16307265
-0.59845694
-0.13539415
-0.79648375
-0.1120871
-1.0901914
-0.091963356
-1.4530287
-0.074622758
-1.8453413
-0.059982955
-2.2028624
-0.047970245
-2.5194279
-0.038266041
-2.5961012
-4.5126133
-0.086328608
-4.5926659
-0.096937861
-4.6129921
-0.01589693
-4.6514513
-0.016003532
-4.6560165
-0.015797363
-4.679592
-0.016446195
-4.6860651
-0.017196129
-4.7067587
-0.018892173
-4.7191821
-0.021255291
-4.7421083
-0.025015283
-4.7648881
-0.030299107
-4.7958095
-0.10516008
-4.8212338
-0.10838937
-4.840596
-0.10941624
-4.8494145
-0.10804603
-4.8479434
-0.10415246
-4.8354626
-0.097756253
-4.8117408
-0.088919746
-4.7761435
-0.077841296
-4.7279409
-0.064884826
-4.6663112
-0.050609714
-4.5902621
-0.035813632
-4.49896
-0.021462752
-4.3911935
-0.0087635681
-4.2661204
0.001037088
-4.122367
0.0065871828
-3.9595302
0.0064341967
-3.7761507
-0.0016379688
-3.5744326
-0.020038826
-1.9504496
-0.042993244
-1.5107757
-0.073135923
-1.1832638
-0.10903196
-0.93812384
-0.14757913
-0.75265691
-0.18504965
-0.61005192
-0.21960782
-0.49843172
-0.25378307
-0.4098036
-0.29214532
-0.33855359
-0.33392551
-0.2802734
-0.3723297
-0.23179807
-0.40390732
-0.19137142
-0.43672044
-0.15802003
-0.49216947
-0.13081242
-0.60306129
-0.10851342
-0.80008366
-0.089763227
-1.0924044
-0.073608881
-1.4540507
-0.059713416
-1.8456217