/*--------------------------------*- C++ -*----------------------------------*\
| =========                 |                                                 |
| \\      /  F ield         | OpenFOAM: The Open Source CFD Toolbox           |
|  \\    /   O peration     | Version:  2206                                  |
|   \\  /    A nd           | Website:  www.openfoam.com                      |
|    \\/     M anipulation  |                                                 |
\*---------------------------------------------------------------------------*/
FoamFile
{
    version     2.0;
    format      ascii;
    arch        "LSB;label=32;scalar=64";
    class       surfaceScalarField;
    location    "0.0452892";
    object      phi_0;
}
// * * * * * * * * * * * * * * * * * * * * * * * * * * * * * * * * * * * * * //

dimensions      [1 0 -1 0 0 0 0];

oriented        oriented;

internalField   nonuniform List<scalar> 
39229
(
-4.3204569
-1.8665409
-4.3194208
-1.6944176
-4.270978
-1.8742965
-4.3183242
-1.5659423
-4.2682775
-1.6959888
-4.2281796
-1.8861475
-4.3210771
-1.4388458
-4.2708347
-1.5627347
-4.2226095
-1.6998509
-4.2086572
-1.8991401
-4.3267339
-1.3234481
-4.2794785
-1.430051
-4.2247512
-1.5595042
-4.2021388
-1.7046332
-4.1950623
-1.9141343
-4.3351619
-1.2170818
-4.2935265
-1.3097498
-4.2357504
-1.4185927
-4.205979
-1.5546358
-4.1858975
-1.7117431
-4.1870722
-1.9303383
-4.3454289
-1.1212492
-4.3115356
-1.1996853
-4.2540934
-1.291647
-4.2207157
-1.4035031
-4.1882626
-1.550896
-4.1760314
-1.7204451
-4.1790219
-1.9483933
-4.3568459
-1.035455
-4.3314708
-1.1019921
-4.2773809
-1.1771164
-4.2440693
-1.2686806
-4.203166
-1.3879495
-4.177463
-1.5478169
-4.1652946
-1.73162
-4.1705414
-1.9684478
-4.3688259
-0.9588712
-4.3518682
-1.0157926
-4.3029212
-1.0774423
-4.2726685
-1.149411
-4.2280126
-1.2439796
-4.1929002
-1.371657
-4.1653807
-1.5458232
-4.1545786
-1.7449741
-4.1617311
-1.9903096
-4.3807311
-0.89034461
-4.3717432
-0.9400315
-4.3288019
-0.9912337
-4.3032015
-1.0480483
-4.2589236
-1.1192598
-4.2195879
-1.2172454
-4.1808696
-1.355037
-4.1542758
-1.5440864
-4.1442678
-1.7599663
-4.153411
-2.013437
-4.3920402
-0.82849874
-4.3905946
-0.87264497
-4.3540115
-0.91663673
-4.3334264
-0.96240125
-4.2921851
-1.0159136
-4.2531701
-1.0862979
-4.2086831
-1.1890293
-4.1704826
-1.337419
-4.1442895
-1.5420027
-4.1352571
-1.7758889
-4.1463662
-2.0372747
-4.4025114
-0.77234395
-4.4081062
-0.81217199
-4.3779911
-0.85081759
-4.3622979
-0.88936001
-4.3252431
-0.93086237
-4.2894554
-0.98066717
-4.243967
-1.0512796
-4.1997073
-1.159009
-4.1613531
-1.3187086
-4.1359153
-1.5393565
-4.1280664
-1.792259
-4.1411254
-2.0614239
-4.4120162
-0.7208483
-4.4242636
-0.757369
-4.4004802
-0.79206245
-4.3893928
-0.82546444
-4.3568551
-0.85955383
-4.3255162
-0.89617062
-4.2822713
-0.94314011
-4.2367289
-1.0141011
-4.1916993
-1.127503
-4.1536807
-1.2991652
-4.1292225
-1.5363824
-4.1228467
-1.8089317
-4.1379495
-2.0857197
-4.4205251
-0.67310998
-4.4391271
-0.70709704
-4.4213606
-0.73894185
-4.4146219
-0.76861464
-4.3865738
-0.79779174
-4.3598411
-0.82681228
-4.3204431
-0.85910976
-4.2769735
-0.90329385
-4.2299659
-0.97527183
-4.1847924
-1.0949804
-4.1473121
-1.2793064
-4.1240889
-1.5335587
-4.1195302
-1.8260609
-4.1368982
-2.1102288
-4.4281356
-0.62852396
-4.4527766
-0.66047507
-4.4405628
-0.69024955
-4.4380605
-0.71723273
-4.4143121
-0.74304849
-4.3918735
-0.76748506
-4.35679
-0.79179468
-4.3171825
-0.8195833
-4.2715734
-0.86167343
-4.223896
-0.935271
-4.1787586
-1.0620162
-4.1420418
-1.2597013
-4.1203325
-1.5314364
-4.1179619
-1.8439887
-4.1379323
-2.1351632
-4.4349832
-0.58674981
-4.4652996
-0.61693055
-4.4580814
-0.64509588
-4.459777
-0.67010597
-4.4401022
-0.69360433
-4.4215544
-0.71514823
-4.390664
-0.73509217
-4.3555116
-0.75431529
-4.3132452
-0.778153
-4.2664736
-0.8186915
-4.2182724
-0.89465767
-4.1733762
-1.0291831
-4.1376689
-1.2408849
-4.1177717
-1.5305473
-4.117978
-1.8631883
-4.1409814
-2.1608465
-4.4411668
-0.54758974
-4.4767787
-0.57612308
-4.473999
-0.60290699
-4.4798273
-0.62642363
-4.4639389
-0.64827243
-4.4489955
-0.66788535
-4.4219794
-0.68537341
-4.3912352
-0.70033246
-4.353021
-0.71488235
-4.3092632
-0.7351642
-4.2614171
-0.77483922
-4.2128875
-0.85395794
-4.1684556
-0.99698699
-4.1340151
-1.2233372
-4.11624
-1.5314223
-4.1194392
-1.8842403
-4.1460059
-2.1876682
-4.4467686
-0.51091541
-4.4872782
-0.53785709
-4.4884276
-0.56334671
-4.4982729
-0.58566067
-4.4858239
-0.60630546
-4.4742702
-0.62454422
-4.4508453
-0.64051146
-4.4242096
-0.65338687
-4.3901401
-0.66363389
-4.3502107
-0.67375252
-4.3049548
-0.69107653
-4.2562158
-0.73061523
-4.2075615
-0.81363871
-4.1638247
-0.96587209
-4.1309179
-1.207492
-4.1155996
-1.5345921
-4.1222572
-1.9077735
-4.1530273
-2.2160386
-4.4518658
-0.47662082
-4.4968734
-0.50200028
-4.5014696
-0.52622595
-4.5151613
-0.54749739
-4.5058028
-0.5672027
-4.4974451
-0.58444332
-4.4773466
-0.59936892
-4.4545398
-0.61110834
-4.4244043
-0.61953383
-4.388517
-0.62517071
-4.3467356
-0.63133476
-4.3001352
-0.64638054
-4.2506974
-0.68649069
-4.2021319
-0.77411963
-4.1593316
-0.9362238
-4.1282363
-1.1937831
-4.1157483
-1.540621
-4.1263963
-1.9344644
-4.1621689
-2.2463722
-4.4565174
-0.44458799
-4.5056367
-0.46844471
-4.5132272
-0.49142615
-4.530526
-0.51173834
-4.5239328
-0.53065718
-4.5185969
-0.54713937
-4.5015608
-0.56132727
-4.4823527
-0.57232485
-4.4559051
-0.57994728
-4.4239311
-0.5839302
-4.3859282
-0.58531742
-4.3424192
-0.5880737
-4.2946249
-0.60154826
-4.2446964
-0.64287144
-4.1964438
-0.73578639
-4.1548313
-0.90840948
-4.125851
-1.182671
-4.1166206
-1.5501083
-4.1319043
-1.9650373
-4.1736995
-2.2790863
-4.4607766
-0.41468791
-4.513637
-0.43707781
-4.5238077
-0.45884105
-4.5444301
-0.47824889
-4.540271
-0.49646668
-4.537799
-0.512345
-4.5235812
-0.52600059
-4.5077781
-0.53646674
-4.4848059
-0.54362524
-4.4565271
-0.547076
-4.4222328
-0.54689371
-4.3821989
-0.54447603
-4.3370839
-0.54440037
-4.2882472
-0.55698866
-4.2380443
-0.6001627
-4.1903499
-0.69900014
-4.1501978
-0.88281889
-4.1236673
-1.1746608
-4.1182072
-1.5636845
-4.1389443
-2.0002622
-4.1881146
-2.314597
-4.4646961
-0.38678076
-4.5209526
-0.40776889
-4.5333164
-0.42836308
-4.5569587
-0.44690561
-4.5548981
-0.46448667
-4.5551139
-0.47985515
-4.5434995
-0.49312205
-4.5309431
-0.50322225
-4.5112746
-0.5100432
-4.4864959
-0.5132675
-4.4556973
-0.51277921
-4.419129
-0.50879597
-4.3771407
-0.5030676
-4.3305468
-0.50072284
-4.2808343
-0.51308996
-4.230575
-0.55875295
-4.1837083
-0.66414825
-4.1453178
-0.85990267
-4.1216228
-1.1703368
-4.1205813
-1.5820453
-4.1478712
-2.0410152
-4.2062638
-2.3532971
-4.4683254
-0.36073353
-4.5276574
-0.38038521
-4.5418549
-0.39986651
-4.5682128
-0.4175842
-4.5679228
-0.43457543
-4.5706352
-0.44950271
-4.5614015
-0.46248042
-4.5519566
-0.47235539
-4.5354743
-0.47894554
-4.5140457
-0.48199896
-4.4865393
-0.48151448
-4.4532329
-0.47739522
-4.4144152
-0.47003488
-4.3705554
-0.46149036
-4.3226078
-0.45745404
-4.272213
-0.47021499
-4.2221311
-0.51904553
-4.1763882
-0.63166419
-4.1401004
-0.84017219
-4.1197089
-1.1703837
-4.1239618
-1.6060122
-4.159375
-2.088327
-4.2295046
-2.3954421
-4.4717087
-0.33642607
-4.5338226
-0.35479999
-4.5495246
-0.37321807
-4.5783068
-0.39014489
-4.5794696
-0.40659166
-4.5844902
-0.42112453
-4.5773916
-0.43389306
-4.5709073
-0.44365851
-4.5575318
-0.45013638
-4.5393672
-0.45307011
-4.514996
-0.45259467
-4.4847477
-0.44868394
-4.4489098
-0.44130579
-4.4078769
-0.43098958
-4.3622257
-0.42013763
-4.3130554
-0.41501907
-4.2621976
-0.42877114
-4.2125556
-0.48148214
-4.1682673
-0.60205017
-4.13448
-0.82419734
-4.1179846
-1.1756113
-4.1288024
-1.6366223
-4.1747456
-2.1432779
-4.2597312
-2.4407685
-4.4748814
-0.31375255
-4.5395135
-0.33090023
-4.5564237
-0.34829376
-4.5873554
-0.36445586
-4.5896666
-0.38038745
-4.5968229
-0.39455965
-4.5916086
-0.40717493
-4.5878924
-0.41693441
-4.5775449
-0.42342129
-4.5626058
-0.42631995
-4.5412752
-0.4258535
-4.5139346
-0.4221278
-4.4808778
-0.41513757
-4.4424974
-0.40487719
-4.3992782
-0.39204442
-4.351922
-0.37938749
-4.3016649
-0.37384432
-4.2505776
-0.3892423
-4.2016889
-0.44657852
-4.1592392
-0.57585355
-4.1284273
-0.81262857
-4.1166438
-1.1870808
-4.1359583
-1.6753316
-4.1962765
-2.206533
-4.2990359
-2.4874955
-4.4778752
-0.29261539
-4.5447884
-0.30858691
-4.5626438
-0.32498511
-4.5954735
-0.34039283
-4.5986508
-0.35582189
-4.6077829
-0.36964889
-4.6042082
-0.38214621
-4.6030417
-0.39198014
-4.5955984
-0.39860158
-4.5838741
-0.40157027
-4.5655334
-0.40115956
-4.5410072
-0.39757621
-4.5105901
-0.39094317
-4.4746756
-0.38123116
-4.4337419
-0.36848535
-4.3883666
-0.35357602
-4.3393897
-0.33963545
-4.2882128
-0.33438359
-4.2371427
-0.35218813
-4.1893808
-0.41490266
-4.1492077
-0.55364611
-4.1219715
-0.80621935
-4.1161444
-1.2062583
-4.1471017
-1.7242041
-4.2275864
-2.2773941
-4.3484312
-2.5315655
-4.4806935
-0.27292556
-4.5496973
-0.28777024
-4.5682673
-0.30319965
-4.6027651
-0.31785733
-4.6065517
-0.33277439
-4.6175144
-0.34625674
-4.6153431
-0.35864182
-4.6165077
-0.36859291
-4.611797
-0.37546876
-4.6032563
-0.37862981
-4.5878949
-0.37835422
-4.566126
-0.37491899
-4.5382565
-0.368564
-4.504686
-0.35938384
-4.4658726
-0.34733233
-4.4223697
-0.33249206
-4.3748577
-0.31596292
-4.3243434
-0.30133795
-4.2724559
-0.29715347
-4.2216963
-0.31821999
-4.1754803
-0.38705257
-4.1381017
-0.53605054
-4.1152695
-0.80592544
-4.1174642
-1.2352759
-4.1653694
-1.7858449
-4.2729529
-2.3519875
-4.4059804
-2.56696
-4.4833699
-0.2545949
-4.554286
-0.26836615
-4.5733639
-0.28285675
-4.6093246
-0.2967647
-4.6134908
-0.31115097
-4.6261496
-0.32426952
-4.6251704
-0.33652239
-4.6284409
-0.34659788
-4.6262549
-0.35381453
-4.6208434
-0.35729502
-4.6084511
-0.35725574
-4.5894263
-0.3540174
-4.5640402
-0.34790466
-4.5327291
-0.33914823
-4.495935
-0.32780423
-4.4541678
-0.31378632
-4.4080636
-0.29725538
-4.358429
-0.27961564
-4.3064643
-0.26505847
-4.2541056
-0.26278888
-4.2040232
-0.28799206
-4.1598407
-0.36364191
-4.1259149
-0.52380768
-4.1087482
-0.8132715
-4.1226074
-1.2774016
-4.196026
-1.8619581
-4.3340759
-2.4227987
-4.4664727
-2.58766
-4.4859082
-0.23753737
-4.5585788
-0.25029134
-4.5779924
-0.26387962
-4.6152361
-0.27704066
-4.6195804
-0.29087073
-4.6338107
-0.30359857
-4.6338322
-0.31568387
-4.6389985
-0.32585082
-4.6390871
-0.33345162
-4.6367325
-0.33736192
-4.6272862
-0.33767363
-4.6110086
-0.33470485
-4.5880807
-0.32885208
-4.5589633
-0.32043767
-4.5241155
-0.30966354
-4.4840074
-0.2965285
-4.4392118
-0.28092157
-4.3904549
-0.2631544
-4.3387116
-0.24502162
-4.2854335
-0.23142326
-4.23286
-0.23200749
-4.1838955
-0.26218616
-4.1423428
-0.34533565
-4.1127682
-0.51791892
-4.103367
-0.83082332
-4.1354645
-1.3373413
-4.2453182
-1.9496839
-4.409403
-2.4783393
-4.5233642
-2.5907659
-4.4883138
-0.22166906
-4.5626214
-0.23346745
-4.5822009
-0.24619271
-4.6205699
-0.25861898
-4.624918
-0.27187164
-4.6406016
-0.2841762
-4.6414566
-0.29604632
-4.64833
-0.30624831
-4.6504127
-0.31423105
-4.6510078
-0.31864679
-4.6444881
-0.31941527
-4.6309608
-0.31680403
-4.6104913
-0.31125445
-4.5835331
-0.30316102
-4.5505685
-0.29282992
-4.5120593
-0.28041334
-4.468517
-0.26585403
-4.4205844
-0.24907396
-4.3691097
-0.2306372
-4.3152809
-0.21280662
-4.260871
-0.20114486
-4.2083961
-0.20557159
-4.1610876
-0.24151911
-4.1229331
-0.33294919
-4.0990655
-0.51998222
-4.1011798
-0.86306512
-4.1627525
-1.4193557
-4.3189957
-2.0390378
-4.4882042
-2.5116579
-2.6094318
-2.5954601
-4.490591
-0.20690681
-4.5664368
-0.21781048
-4.5860341
-0.22972173
-4.6253893
-0.24142951
-4.6295944
-0.25409094
-4.6466188
-0.2659445
-4.648157
-0.27755135
-4.6565758
-0.2877169
-4.6603617
-0.29603893
-4.6637581
-0.30099557
-4.660139
-0.30230223
-4.6493716
-0.30013708
-4.631365
-0.2949522
-4.6065606
-0.2871927
-4.5754381
-0.27723901
-4.538474
-0.26536468
-4.4961378
-0.25166677
-4.4489961
-0.23607352
-4.3977887
-0.21863261
-4.3435297
-0.20023837
-4.2876498
-0.18369252
-4.2323122
-0.17502819
-4.1803593
-0.18428313
-4.1353936
-0.22680928
-4.1017099
-0.32762877
-4.0857807
-0.53277827
-4.1062217
-0.91757927
-4.2144012
-1.5234089
-4.4106093
-2.1157767
-2.5946631
-2.5254435
-2.0966067
-2.5971928
-4.4927441
-0.19317085
-4.5700454
-0.20324265
-4.5895173
-0.21439027
-4.6297473
-0.22540616
-4.6336856
-0.23747037
-4.6519475
-0.24884903
-4.6540364
-0.26014764
-4.6638637
-0.27020579
-4.6690644
-0.27879423
-4.6750731
-0.28428915
-4.6743107
-0.28618756
-4.6663226
-0.28454037
-4.6507895
-0.27978542
-4.6281495
-0.27239079
-4.598859
-0.26279404
-4.5633973
-0.25134829
-4.5222273
-0.2382864
-4.4758431
-0.22368167
-4.4248901
-0.20752429
-4.3702471
-0.19007654
-4.3131243
-0.17259739
-4.255264
-0.15843601
-4.1992476
-0.15392435
-4.1483749
-0.16903136
-4.1066937
-0.21909607
-4.0790683
-0.33119447
-4.0749012
-0.56124055
-4.1270871
-1.0035669
-4.2952584
-1.6383294
-2.5583201
-2.1519476
-2.0907852
-2.5306127
-1.6824068
-2.5977114
-4.4947792
-0.18038599
-4.573467
-0.18968754
-4.5926878
-0.20012394
-4.6336929
-0.21047622
-4.637264
-0.22194606
-4.6566674
-0.23283507
-4.6591855
-0.24379003
-4.670307
-0.25367387
-4.6766547
-0.26243929
-4.6850503
-0.26843679
-4.6870748
-0.27095102
-4.6818898
-0.2698714
-4.6688508
-0.26560489
-4.6483929
-0.25861562
-4.6209465
-0.24937904
-4.5869723
-0.23830551
-4.5469333
-0.2257166
-4.5012847
-0.21182971
-4.4505704
-0.19675809
-4.395554
-0.18063251
-4.337279
-0.16398456
-4.2771882
-0.14847076
-4.2174406
-0.13789018
-4.1611064
-0.13878127
-4.1121039
-0.16090334
-4.0750411
-0.21983235
-4.0559569
-0.34666659
-4.0713253
-0.61422838
-4.1751538
-1.1235208
-2.495091
-1.7014066
-2.0689624
-2.1737415
-1.6809798
-2.531616
-1.3489379
-2.5977515
-4.4967021
-0.16848252
-4.5767146
-0.17707139
-4.5955694
-0.18684803
-4.6372688
-0.19657219
-4.6403899
-0.20745765
-4.6608455
-0.21785008
-4.6636852
-0.22843187
-4.6760057
-0.23808602
-4.6832634
-0.24693277
-4.6937982
-0.25336755
-4.6985022
-0.25649977
-4.6961411
-0.25601728
-4.6856225
-0.25228337
-4.6673756
-0.24573934
-4.6417997
-0.23687681
-4.6093271
-0.22615063
-4.5704071
-0.21394013
-4.5254762
-0.20056057
-4.4750023
-0.18626838
-4.4196202
-0.17128468
-4.3602335
-0.15592872
-4.2980829
-0.1410201
-4.2349205
-0.12865733
-4.1734086
-0.12302214
-4.1173108
-0.13075779
-4.0713326
-0.16132073
-4.0407846
-0.23122517
-4.0351771
-0.37937085
-4.0837479
-0.70347718
-2.418352
-1.2005378
-2.0236075
-1.7467034
-1.6684474
-2.1863237
-1.3494489
-2.5308331
-1.0809823
-2.5976082
-4.4985183
-0.15739429
-4.579803
-0.16532513
-4.5981808
-0.17449146
-4.6405017
-0.18362579
-4.6431221
-0.19393815
-4.664546
-0.20383661
-4.6676121
-0.21402389
-4.6810506
-0.22340427
-4.6890152
-0.23224169
-4.7014305
-0.23903189
-4.7086644
-0.24276064
-4.7091395
-0.24288787
-4.7011722
-0.23971457
-4.6851738
-0.23364946
-4.6615061
-0.22518133
-4.6305704
-0.21479189
-4.5927862
-0.20290867
-4.5485724
-0.18990444
-4.4983487
-0.17613786
-4.4426341
-0.16196544
-4.3821759
-0.14775796
-4.3180415
-0.13404437
-4.2517163
-0.12196583
-4.1853704
-0.11409625
-4.1223497
-0.11502785
-4.0673796
-0.13135757
-4.0259822
-0.17228455
-4.0058519
-0.25657429
-4.0216237
-0.43866176
-2.3496485
-0.77163042
-1.9602666
-1.2640583
-1.6373637
-1.777794
-1.3423701
-2.1935002
-1.0822412
-2.5293996
-0.86592053
-2.5974063
-4.5002348
-0.14705722
-4.5827439
-0.15438497
-4.6005436
-0.16298682
-4.6434317
-0.17156881
-4.6455023
-0.18132717
-4.6678215
-0.19073916
-4.6710334
-0.20051836
-4.6855164
-0.20959371
-4.694021
-0.2183412
-4.7080657
-0.22539162
-4.7176395
-0.22967585
-4.7209465
-0.23040923
-4.7155599
-0.22781461
-4.7018524
-0.22225375
-4.6801413
-0.21419879
-4.6507931
-0.2041463
-4.6141867
-0.19255802
-4.5707155
-0.17985163
-4.5207658
-0.16644302
-4.4647656
-0.15279198
-4.4033078
-0.13939261
-4.337277
-0.126774
-4.2679393
-0.11569419
-4.1970963
-0.10770245
-4.1275034
-0.10595707
-4.0635059
-0.1154681
-4.0108886
-0.14259096
-3.9775085
-0.19649688
-3.9728316
-0.30178304
-2.2998994
-0.48736093
-1.8955839
-0.83626572
-1.5881697
-1.3133584
-1.3214609
-1.7987526
-1.0782721
-2.1975868
-0.86737771
-2.5278298
-0.69344841
-2.5971972
-4.5018628
-0.13741144
-4.5855418
-0.14419302
-4.6026767
-0.15227151
-4.6460824
-0.16033929
-4.6475885
-0.16956254
-4.6707216
-0.17850004
-4.6740108
-0.18786519
-4.6894715
-0.19661294
-4.698383
-0.20520448
-4.7138218
-0.21241856
-4.7255097
-0.21720067
-4.7316202
-0.21852507
-4.7288367
-0.21651595
-4.7174679
-0.21147673
-4.6977664
-0.20385535
-4.6700677
-0.19414275
-4.6347027
-0.18282865
-4.592026
-0.17036745
-4.5423925
-0.15721447
-4.4861657
-0.14388443
-4.4238022
-0.13097124
-4.3559933
-0.1191147
-4.2837921
-0.10900876
-4.2087083
-0.10170174
-4.1329951
-0.099315539
-4.0602928
-0.10576632
-3.9961337
-0.12638225
-3.9488863
-0.16710044
-3.9274022
-0.2380061
-2.2609172
-0.33923209
-1.8446797
-0.5377142
-1.5318454
-0.89277713
-1.2845773
-1.3503265
-1.0642661
-1.8128303
-0.86516177
-2.1999221
-0.69485876
-2.5263461
-0.55520718
-2.5970039
-4.5034201
-0.12841045
-4.5881952
-0.13469465
-4.6045989
-0.14228607
-4.6484762
-0.14987659
-4.6494124
-0.15858661
-4.6732885
-0.16706581
-4.6766001
-0.17601297
-4.6929748
-0.1844221
-4.7021874
-0.1928058
-4.7188106
-0.20009169
-4.732363
-0.20530039
-4.7412187
-0.20718957
-4.7410498
-0.2057639
-4.7320668
-0.20125862
-4.7144323
-0.19408716
-4.6884529
-0.18472456
-4.6544068
-0.17367184
-4.6125995
-0.16141668
-4.5633467
-0.14844755
-4.5069632
-0.13531122
-4.4437992
-0.12265442
-4.3743599
-0.1112126
-4.2994662
-0.1017664
-4.2203771
-0.095219021
-4.1389488
-0.093052726
-4.0581389
-0.098208743
-3.982681
-0.11550071
-3.9208279
-0.15045492
-3.8823521
-0.20826454
-2.2251077
-0.27198968
-1.8050203
-0.3779637
-1.4832187
-0.58610012
-1.2383086
-0.93926495
-1.0370783
-1.3775833
-0.85570677
-1.8223654
-0.69363133
-2.2012627
-0.55647279
-2.5250324
-0.44445104
-2.5968327
-4.5049862
-0.11996193
-4.5907147
-0.12583121
-4.6063341
-0.13297143
-4.6506327
-0.140126
-4.6510078
-0.1483441
-4.6755575
-0.15638222
-4.6788503
-0.16491445
-4.6960756
-0.17297945
-4.7055098
-0.18111653
-4.7231357
-0.18839322
-4.7382931
-0.19394691
-4.7498017
-0.19636485
-4.7522441
-0.19551323
-4.7456889
-0.191549
-4.7301779
-0.18484483
-4.7059914
-0.17584519
-4.6733524
-0.16505047
-4.6325078
-0.15297209
-4.5837226
-0.14013105
-4.5272665
-0.12709849
-4.4634096
-0.11454652
-4.3924999
-0.10325954
-4.3151213
-0.094112093
-4.2322597
-0.088050718
-4.1454633
-0.086299351
-4.0571608
-0.09100158
-3.9711631
-0.10620073
-3.8947791
-0.13776721
-3.8382977
-0.19084087
-2.1896561
-0.24189013
-1.7699251
-0.30585725
-1.444841
-0.41582722
-1.1946683
-0.62966994
-1.0004679
-0.97607026
-0.83578292
-1.3975657
-0.68715083
-1.8289229
-0.55580573
-2.2020319
-0.44554111
-2.5239105
-0.35574119
-2.5966868
-4.5039919
-0.018877712
-4.5930263
-0.11759511
-4.6079026
-0.12427246
-4.6525598
-0.13103847
-4.6524079
-0.13878212
-4.6775596
-0.14639873
-4.680803
-0.15452183
-4.69882
-0.16224173
-4.7084148
-0.17010617
-4.7268916
-0.17730385
-4.7433948
-0.18312104
-4.7574292
-0.18602185
-4.7624598
-0.18572901
-4.7583679
-0.18230619
-4.7450342
-0.17608417
-4.7227143
-0.16746664
-4.6915745
-0.15693685
-4.6517989
-0.1450174
-4.6035887
-0.13225901
-4.5471617
-0.11925954
-4.4827247
-0.10670587
-4.4105007
-0.09539944
-4.3308573
-0.08625771
-4.2444884
-0.080316036
-4.1526296
-0.07879121
-4.0573382
-0.083384792
-3.9616847
-0.097189237
-3.8717362
-0.12567147
-3.7970297
-0.17562638
-2.1549295
-0.22387507
-1.7359341
-0.27463317
-1.4118962
-0.33800104
-1.1592407
-0.45100122
-0.96319338
-0.66696517
-0.80741277
-1.0045931
-0.67253445
-1.4122319
-0.55128047
-1.8335179
-0.4451911
-2.2024711
-0.35665915
-2.5229712
-0.2847077
-2.5965645
-4.5034936
-0.01838246
-4.5914146
-0.020480556
-4.6093961
-0.11610966
-4.6542618
-0.12256346
-4.6536473
-0.12984861
-4.6793289
-0.13706894
-4.682502
-0.14479042
-4.7012473
-0.15216806
-4.7109574
-0.15974188
-4.7301586
-0.16680675
-4.7477612
-0.17280506
-4.7641667
-0.17613549
-4.7717412
-0.17637754
-4.770137
-0.17349382
-4.7590251
-0.16776734
-4.7386427
-0.15955326
-4.7090956
-0.14930526
-4.6705023
-0.13754216
-4.6229899
-0.12483443
-4.5667123
-0.11180865
-4.5018162
-0.099169692
-4.4284298
-0.087723337
-4.3467387
-0.07839087
-4.257153
-0.072246394
-4.1605478
-0.070591239
-4.058654
-0.075044181
-3.9540518
-0.08799353
-3.8518365
-0.11372407
-3.7599279
-0.15957254
-2.122306
-0.20669823
-1.7028749
-0.25580298
-1.3807617
-0.30492515
-1.129332
-0.3674009
-0.93181065
-0.48228222
-0.77673714
-0.69771223
-0.65076317
-1.0264799
-0.5404949
-1.4230604
-0.44197149
-1.8367988
-0.35648941
-2.2027171
-0.285469
-2.5221953
-0.22784021
-2.5964625
-4.5033598
-0.018016107
-4.5902303
-0.019558199
-4.6086939
-0.021184112
-4.6556828
-0.11468129
-4.6547575
-0.12149749
-4.6808778
-0.12835006
-4.68398
-0.1356763
-4.7033933
-0.14271823
-4.7131841
-0.14999131
-4.733006
-0.15688154
-4.7514857
-0.1629824
-4.7700811
-0.1666862
-4.7801314
-0.16743407
-4.781025
-0.16508104
-4.7721697
-0.15986082
-4.7537896
-0.15207312
-4.7259248
-0.14213289
-4.6886293
-0.13053805
-4.6419483
-0.11786626
-4.5859577
-0.10476795
-4.5207373
-0.091972334
-4.4463372
-0.080293227
-4.3628019
-0.07064124
-4.2702875
-0.064071593
-4.1692932
-0.061932503
-4.061164
-0.065936133
-3.9480806
-0.078270052
-3.8346353
-0.10205268
-3.7272073
-0.14341624
-2.0929216
-0.18750466
-1.6717711
-0.23678749
-1.3507261
-0.28509285
-1.1017497
-0.33194103
-0.90545152
-0.39344689
-0.74989107
-0.50910702
-0.62614035
-0.72242535
-0.52384158
-1.0432201
-0.43394305
-1.4311257
-0.35415718
-1.8391837
-0.28540009
-2.20285
-0.22846623
-2.5215593
-0.18231828
-2.5963793
-4.5035057
-0.017733612
-4.5894152
-0.018822882
-4.6084773
-0.019776057
-4.6541329
-0.022732449
-4.6558153
-0.11366302
-4.6822227
-0.12019918
-4.6852732
-0.12713578
-4.7052876
-0.13385454
-4.7151354
-0.14082131
-4.7354931
-0.14750625
-4.7546534
-0.15364134
-4.7752398
-0.15765705
-4.7876772
-0.1588754
-4.7910643
-0.15703882
-4.7844876
-0.15233103
-4.7681653
-0.14499311
-4.742065
-0.13539264
-4.7061805
-0.12399242
-4.6604692
-0.11136112
-4.6049163
-0.098163423
-4.5395221
-0.085152697
-4.4642601
-0.073162971
-4.3790687
-0.063096178
-4.2838963
-0.055972805
-4.1788918
-0.053095242
-4.0649466
-0.056253017
-3.943765
-0.067777591
-3.8196635
-0.090337339
-3.6981415
-0.1282686
-2.0669565
-0.16800965
-1.6436123
-0.21472347
-1.3224025
-0.2644588
-1.0753723
-0.31097895
-0.88164933
-0.35536268
-0.72729108
-0.41586108
-0.60380799
-0.53145812
-0.50436935
-0.74198881
-0.42119787
-1.0560306
-0.34812066
-1.4371936
-0.28368227
-1.840946
-0.2284493
-2.2029201
-0.182828
-2.5210427
-0.14588507
-2.5963106
-4.5038659
-0.017515925
-4.5888834
-0.018257254
-4.6085945
-0.018706889
-4.6530076
-0.020899967
-4.6549517
-0.023603896
-4.6833316
-0.11259671
-4.686415
-0.1191309
-4.7069509
-0.12554259
-4.7168466
-0.13219901
-4.7376698
-0.1386581
-4.7573428
-0.14476667
-4.7797139
-0.14903301
-4.7944279
-0.1506818
-4.8002874
-0.1493434
-4.795997
-0.1451496
-4.7817758
-0.13828214
-4.757513
-0.12905601
-4.7231462
-0.11788795
-4.6785418
-0.10532143
-4.623586
-0.092019401
-4.558184
-0.078753826
-4.4822229
-0.066385336
-4.3955533
-0.055826849
-4.2979642
-0.048065701
-4.1893108
-0.044316346
-4.0700274
-0.046322646
-3.9412083
-0.056586303
-3.8068029
-0.077977073
-3.6719001
-0.11392185
-2.0437548
-0.15018343
-1.6185665
-0.1921751
-1.2966004
-0.23992801
-1.0504243
-0.28899098
-0.85908285
-0.33322092
-0.7072054
-0.37519315
-0.58489491
-0.43466891
-0.48617225
-0.54969129
-0.40591435
-0.7573562
-0.3383386
-1.0658633
-0.27910108
-1.4418013
-0.22716781
-1.8422646
-0.18284191
-2.20295
-0.14629918
-2.5206237
-0.11672635
-2.5962557
-4.5043906
-0.017348006
-4.5885692
-0.017822262
-4.6089681
-0.017884853
-4.6522385
-0.019474572
-4.6545376
-0.021321067
-4.6818937
-0.025050718
-4.6874704
-0.11160977
-4.7084026
-0.1177467
-4.7183568
-0.12409088
-4.7395771
-0.13031369
-4.7596243
-0.13634428
-4.7835718
-0.1408019
-4.800435
-0.14283678
-4.8087296
-0.14197251
-4.8067186
-0.13828911
-4.7946282
-0.13190912
-4.7722634
-0.12309237
-4.7395107
-0.11220146
-4.6961458
-0.099739575
-4.6419495
-0.086352094
-4.576718
-0.072815912
-4.5002348
-0.060017794
-4.4122653
-0.048896764
-4.3124701
-0.040437911
-4.2004913
-0.035763687
-4.0763459
-0.0364692
-3.9404727
-0.045055231
-3.7962109
-0.064753366
-3.6482225
-0.099206329
-2.0225978
-0.13387773
-1.5959701
-0.17196197
-1.2735035
-0.21472046
-1.0275263
-0.26245011
-0.83765327
-0.31015575
-0.68830958
-0.35190128
-0.56827256
-0.39164441
-0.47064862
-0.45013656
-0.39129187
-0.56435502
-0.32637887
-0.76938808
-0.27155896
-1.0734451
-0.22365918
-1.445332
-0.18187285
-1.8432643
-0.1463244
-2.2029606
-0.11706272
-2.5202838
-0.093394102
-2.5962103
-4.5050415
-0.017218447
-4.5884216
-0.017487832
-4.6095388
-0.017252747
-4.6517441
-0.018377901
-4.6544439
-0.019574789
-4.6808813
-0.022341396
-4.6865376
-0.025998933
-4.7096315
-0.1104467
-4.7196951
-0.1164667
-4.7412455
-0.12245074
-4.7615611
-0.12835855
-4.7868808
-0.1329514
-4.8057524
-0.13532585
-4.8164278
-0.13490801
-4.8166744
-0.13172622
-4.806731
-0.1258444
-4.7863109
-0.11746971
-4.7552564
-0.10690366
-4.7132548
-0.094598239
-4.6599778
-0.081165096
-4.5951027
-0.067369459
-4.5182896
-0.054114178
-4.4292092
-0.042370571
-4.3274008
-0.033154911
-4.2123655
-0.027530957
-4.0837855
-0.026932101
-3.9414987
-0.033627056
-3.7880411
-0.051014604
-3.6273532
-0.083388014
-2.0033382
-0.11735324
-1.5750892
-0.15399661
-1.2525088
-0.19245584
-1.0068887
-0.23501934
-0.81780514
-0.2820627
-0.67027615
-0.32802008
-0.55274031
-0.36728929
-0.45711735
-0.40506089
-0.37873222
-0.46266936
-0.31472802
-0.57604616
-0.2622023
-0.77880492
-0.21781628
-1.0793196
-0.1791653
-1.4480579
-0.14558389
-1.84403
-0.11709145
-2.2029611
-0.093664485
-2.5200108
-0.074721994
-2.5961747
-4.5057892
-0.017118569
-4.5884016
-0.017230752
-4.6102609
-0.016766892
-4.6514612
-0.017534282
-4.6545957
-0.018232201
-4.6802149
-0.020248362
-4.6860237
-0.022868884
-4.7083788
-0.027267154
-4.720913
-0.10928581
-4.7427001
-0.11504429
-4.7632115
-0.12079307
-4.7897045
-0.12546988
-4.8104349
-0.1281364
-4.8234215
-0.12813342
-4.8258913
-0.12543776
-4.8180971
-0.12006006
-4.7996521
-0.11215522
-4.7703658
-0.10196155
-4.7298383
-0.089872227
-4.6776329
-0.076450425
-4.6133019
-0.062432122
-4.536363
-0.048720734
-4.4463787
-0.036313143
-4.3427499
-0.026280041
-4.2248864
-0.019679518
-4.0921884
-0.017833085
-3.9441127
-0.022656369
-3.7822686
-0.03737976
-3.6096118
-0.066723636
-1.9862882
-0.099416526
-1.555791
-0.13594284
-1.2329144
-0.17312765
-0.98801563
-0.21103333
-0.79977768
-0.25284289
-0.65338852
-0.2988026
-0.53783051
-0.34282077
-0.44454817
-0.3797607
-0.36785596
-0.41585981
-0.30466301
-0.47272412
-0.25296189
-0.58532313
-0.21048628
-0.78618432
-0.17461689
-1.0838932
-0.14348198
-1.4501749
-0.11652227
-1.8446197
-0.093694657
-2.2029546
-0.074940651
-2.5197903
-0.059783446
-2.5961452
-4.5065949
-0.017057189
-4.5884791
-0.017033528
-4.6110992
-0.016393567
-4.6513412
-0.016885534
-4.6549356
-0.017200118
-4.6798159
-0.018637843
-4.6858185
-0.020465887
-4.7075364
-0.023724933
-4.7199756
-0.028218926
-4.7439432
-0.10807717
-4.764622
-0.1136354
-4.7921019
-0.11834683
-4.8145386
-0.12125586
-4.8297522
-0.12163455
-4.8343982
-0.11940563
-4.8287409
-0.11453101
-4.8122872
-0.10711715
-4.7848232
-0.097340427
-4.7458656
-0.085529039
-4.6948732
-0.0721871
-4.6312708
-0.058004409
-4.5544174
-0.043867423
-4.4637526
-0.030783634
-4.3585132
-0.01987813
-4.2380265
-0.012257907
-4.1014529
-0.0092112883
-3.9480881
-0.012319347
-3.7786498
-0.024423023
-3.5950917
-0.050050249
-1.9717869
-0.08029328
-1.5384272
-0.11612928
-1.2145976
-0.15382423
-0.97027346
-0.19059953
-0.78320666
-0.22743923
-0.63790964
-0.26820237
-0.52369113
-0.31284896
-0.4324107
-0.35488664
-0.35780962
-0.38973971
-0.2959974
-0.4244729
-0.24494314
-0.48074161
-0.20317187
-0.59266939
-0.1688611
-0.79198031
-0.13992497
-1.0874703
-0.11487959
-1.4518299
-0.09325293
-1.8450781
-0.074968187
-2.2029463
-0.059958437
-2.5196139
-0.047829513
-2.5961218
-4.5101248
-0.10097492
-4.5886698
-0.016859017
-4.6120271
-0.016106664
-4.6513468
-0.016386691
-4.6554197
-0.016406851
-4.6796233
-0.017398856
-4.68585
-0.018617532
-4.7070203
-0.020994083
-4.7194301
-0.024283065
-4.7428299
-0.029341845
-4.7658403
-0.10686599
-4.7941258
-0.11157589
-4.8181197
-0.11467434
-4.8354619
-0.11539877
-4.8422269
-0.11361324
-4.8386812
-0.10923507
-4.8242202
-0.10232644
-4.7986164
-0.093004251
-4.7613083
-0.081531514
-4.7116557
-0.068344277
-4.648958
-0.054072388
-4.5724024
-0.039566982
-4.481296
-0.025824121
-4.3746714
-0.014021472
-4.2517876
-0.005315908
-4.1114886
-0.001108384
-3.9532952
-0.0026025607
-3.7767773
-0.012487303
-3.5835433
-0.034283808
-1.9599301
-0.061062226
-1.5233808
-0.094749781
-1.1979133
-0.13241033
-0.95353658
-0.1703025
-0.76754751
-0.20611101
-0.62361379
-0.24165095
-0.51059137
-0.28123494
-0.42074389
-0.32445658
-0.3480559
-0.36459226
-0.28803617
-0.39765375
-0.23807436
-0.43130566
-0.19680248
-0.48711427
-0.1630737
-0.59848385
-0.1353952
-0.7965426
-0.11208785
-1.0902781
-0.091963709
-1.4531292
-0.074622803
-1.845437
-0.059982847
-2.2029373
-0.0479701
-2.5194723
-0.038265915
-2.5961028
-4.5126137
-0.086328304
-4.5926644
-0.096937511
-4.6129903
-0.015896862
-4.6514488
-0.016003464
-4.6560144
-0.015797288
-4.6795899
-0.016446119
-4.6860631
-0.017196048
-4.7067568
-0.018892089
-4.7191802
-0.021255204
-4.7421063
-0.0250152
-4.764886
-0.030299032
-4.7958071
-0.10515991
-4.8212312
-0.10838925
-4.8405932
-0.10941616
-4.8494115
-0.10804599
-4.8479403
-0.10415244
-4.8354595
-0.097756181
-4.8117379
-0.088919587
-4.7761409
-0.07784105
-4.7279385
-0.064884495
-4.6663091
-0.050609232
-4.5902605
-0.035812841
-4.4989593
-0.021461478
-4.3911941
-0.008761767
-4.266123
0.0010393078
-4.122372
0.0065895104
-3.9595379
0.0064364416
-3.7761607
-0.0016356655
-3.5744453
-0.020036754
-1.9504583
-0.042991707
-1.5107836
-0.073134807
-1.183271
-0.10902982
-0.93813012
-0.14757419
-0.75266182
-0.18504118
-0.61005528
-0.21959707
-0.49843375
-0.25377324
-0.40980484
-0.29213852
-0.33855443
-0.33391973
-0.28027397
-0.37232123
-0.23179848
-0.40389596
-0.19137186
-0.43671128
-0.15802066
-0.49217257
-0.13081325
-0.60308841
-0.10851425
-0.80014245
-0.089763822
-1.0924909
-0.073609159