/*--------------------------------*- C++ -*----------------------------------*\
| =========                 |                                                 |
| \\      /  F ield         | OpenFOAM: The Open Source CFD Toolbox           |
|  \\    /   O peration     | Version:  2206                                  |
|   \\  /    A nd           | Website:  www.openfoam.com                      |
|    \\/     M anipulation  |                                                 |
\*---------------------------------------------------------------------------*/
FoamFile
{
    version     2.0;
    format      ascii;
    arch        "LSB;label=32;scalar=64";
    class       volScalarField;
    location    "0.0452892";
    object      pMean;
}
// * * * * * * * * * * * * * * * * * * * * * * * * * * * * * * * * * * * * * //

dimensions      [1 -1 -2 0 0 0 0];

internalField   nonuniform List<scalar> 
19794
(
101314.51
101295.23
101322.12
101282.83
101312.32
101320.13
101267.21
101307.77
101305.1
101322.08
101251.13
101301.89
101296.9
101308.48
101322.29
101233.64
101296.79
101285.85
101302.27
101307.42
101323.2
101215.1
101291.73
101274.72
101293.88
101300.71
101308.16
101323.68
101195.71
101286.94
101262.39
101286.35
101291.23
101301.98
101308.23
101324.26
101175.88
101282.31
101249.21
101278.5
101282.27
101293.11
101302.24
101308.53
101324.73
101156.04
101277.87
101235.19
101270.66
101272.35
101285.16
101293.41
101302.9
101308.76
101325.12
101136.56
101273.56
101220.65
101262.75
101261.84
101276.56
101285.51
101294.31
101303.46
101308.98
101325.43
101117.66
101269.32
101205.9
101254.89
101250.6
101267.77
101276.74
101286.84
101295.13
101304.07
101309.17
101325.62
101099.55
101265.1
101191.25
101247.09
101238.89
101258.63
101267.53
101278.53
101288.03
101296.04
101304.67
101309.32
101325.67
101082.3
101260.88
101176.96
101239.43
101226.91
101249.34
101257.68
101269.88
101280.03
101289.35
101296.97
101305.26
101309.41
101325.55
101066.02
101256.66
101163.18
101231.88
101214.89
101239.99
101247.38
101260.67
101271.65
101281.73
101290.7
101297.91
101305.81
101309.46
101325.26
101050.73
101252.43
101150.03
101224.46
101203
101230.71
101236.78
101251.12
101262.63
101273.73
101283.47
101292.06
101298.84
101306.32
101309.45
101324.78
101036.48
101248.24
101137.57
101217.17
101191.4
101221.54
101226.04
101241.37
101253.16
101265.11
101275.87
101285.22
101293.4
101299.74
101306.78
101309.39
101324.08
101023.29
101244.12
101125.84
101210.05
101180.15
101212.55
101215.29
101231.52
101243.35
101256.02
101267.61
101278.02
101286.95
101294.7
101300.61
101307.18
101309.28
101323.17
101011.15
101240.09
101114.87
101203.12
101169.34
101203.75
101204.66
101221.69
101233.3
101246.58
101258.88
101270.17
101280.13
101288.62
101295.95
101301.45
101307.53
101309.13
101322.02
101000.06
101236.22
101104.66
101196.43
101159.02
101195.18
101194.2
101211.94
101223.13
101236.88
101249.75
101261.84
101272.69
101282.19
101290.24
101297.15
101302.26
101307.84
101308.94
101320.65
100990
101232.53
101095.22
101190.02
101149.21
101186.86
101184
101202.33
101212.91
101227.02
101240.29
101253.09
101264.78
101275.14
101284.16
101291.79
101298.31
101303.05
101308.1
101308.73
101319.05
100980.93
101229.06
101086.53
101183.92
101139.95
101178.84
101174.11
101192.9
101202.72
101217.06
101230.57
101243.97
101256.43
101267.64
101277.49
101286.04
101293.29
101299.45
101303.85
101308.35
101308.5
101317.22
100972.8
101225.83
101078.57
101178.19
101131.25
101171.16
101164.57
101183.68
101192.64
101207.08
101220.65
101234.52
101247.68
101259.71
101270.39
101279.73
101287.85
101294.76
101300.61
101304.68
101308.57
101308.24
101315.16
100965.54
101222.87
101071.32
101172.84
101123.13
101163.84
101155.44
101174.73
101182.71
101197.15
101210.62
101224.81
101238.53
101251.34
101262.87
101273.01
101281.87
101289.61
101296.24
101301.79
101305.54
101308.78
101307.97
101312.87
100959.1
101220.19
101064.72
101167.9
101115.58
101156.92
101146.74
101166.09
101172.99
101187.31
101200.53
101214.89
101229.06
101242.54
101254.89
101265.87
101275.51
101283.93
101291.36
101297.76
101303.04
101306.46
101308.96
101307.67
101310.37
100953.39
101217.79
101058.75
101163.38
101108.59
101150.43
101138.52
101157.78
101163.54
101177.63
101190.45
101204.84
101219.29
101233.35
101246.45
101258.27
101268.72
101277.88
101285.96
101293.14
101299.35
101304.36
101307.42
101309.09
101307.33
101307.71
100948.36
101215.69
101053.34
101159.3
101102.15
101144.39
101130.77
101149.86
101154.4
101168.15
101180.43
101194.73
101209.31
101223.79
101237.56
101250.18
101261.47
101271.42
101280.19
101288.01
101295.01
101301.06
101305.77
101308.42
101309.14
101306.99
101304.99
100943.91
101213.86
101048.44
101155.64
101096.22
101138.8
101123.5
101142.34
101145.64
101158.92
101170.55
101184.61
101199.16
101213.95
101228.25
101241.6
101253.72
101264.5
101274.03
101282.5
101290.13
101297
101302.9
101307.23
101309.4
101309.12
101306.73
101302.33
100939.99
101212.31
101044.01
101152.4
101090.78
101133.68
101116.73
101135.27
101137.27
101149.99
101160.85
101174.54
101188.93
101203.85
101218.57
101232.56
101245.44
101257.05
101267.39
101276.6
101284.88
101292.4
101299.16
101304.86
101308.72
101310.36
101309
101306.71
101299.7
100936.52
101211.02
101040
101149.56
101085.8
101129.01
101110.43
101128.65
101129.33
101141.4
101151.38
101164.6
101178.66
101193.58
101208.58
101223.09
101236.67
101249.07
101260.24
101270.22
101279.22
101287.39
101294.86
101301.5
101306.91
101310.2
101311.11
101309.02
101306.99
101297.41
100933.45
101209.98
101036.35
101147.11
101081.25
101124.79
101104.59
101122.48
101121.83
101133.2
101142.2
101154.84
101168.44
101183.2
101198.33
101213.24
101227.43
101240.57
101252.53
101263.33
101273.1
101281.99
101290.12
101297.54
101303.99
101309.05
101311.28
101312.2
101309.03
101307.31
101295.96
100930.71
101209.18
101033.03
101145.03
101077.08
101121.01
101099.21
101116.78
101114.79
101125.41
101133.34
101145.3
101158.32
101172.76
101187.87
101203.05
101217.73
101231.54
101244.26
101255.87
101266.45
101276.12
101284.99
101293.12
101300.45
101306.63
101310.73
101313.1
101312.65
101309.37
101307.57
101294.77
100928.25
101208.59
101029.98
101143.29
101073.27
101117.65
101094.25
101111.54
101108.21
101118.05
101124.85
101136.04
101148.36
101162.36
101177.28
101192.57
101207.63
101222.02
101235.45
101247.84
101259.22
101269.71
101279.39
101288.31
101296.41
101303.58
101308.79
101313.56
101313.15
101314.19
101309.51
101307.75
101293.81
100926.05
101208.19
101027.19
101141.87
101069.78
101114.68
101089.69
101106.74
101102.08
101111.15
101116.74
101127.1
101138.63
101152.04
101166.62
101181.87
101197.18
101212.04
101226.1
101239.23
101251.4
101262.71
101273.24
101283.02
101291.98
101299.97
101306.37
101312.51
101313.43
101315.61
101314.85
101309.63
101307.87
101293.05
100924.06
101208
101024.6
101140.74
101066.58
101112.09
101085.51
101102.39
101096.4
101104.71
101109.05
101118.52
101129.15
101141.87
101155.97
101171.01
101186.4
101201.62
101216.24
101230.04
101242.97
101255.1
101266.48
101277.18
101287.06
101296.01
101303.33
101310.86
101312.24
101317.03
101316.24
101315.5
101309.73
101307.95
101292.45
100922.22
101208.06
101022.21
101139.87
101063.65
101109.84
101081.68
101098.44
101091.14
101098.72
101101.78
101110.33
101119.98
101131.91
101145.38
101160.06
101175.39
101190.82
101205.88
101220.29
101233.94
101246.86
101259.08
101270.75
101281.56
101291.61
101299.92
101308.46
101310.74
101316.9
101317.72
101317.04
101316.06
101309.8
101308
101291.97
100920.38
101208.25
101019.98
101139.26
101060.95
101107.91
101078.18
101094.9
101086.3
101093.19
101094.95
101102.54
101111.15
101122.22
101134.94
101149.1
101164.19
101179.67
101195.05
101209.99
101224.3
101237.98
101251.03
101263.67
101275.37
101286.69
101296
101305.72
101308.86
101316.37
101317.59
101318.84
101317.72
101316.51
101309.86
101308.04
101291.59
100918.54
101208.1
101017.93
101138.95
101058.47
101106.28
101074.97
101091.72
101081.84
101088.11
101088.57
101095.18
101102.7
101112.82
101124.69
101138.19
101152.87
101168.25
101183.81
101199.15
101214.05
101228.43
101242.29
101255.84
101268.49
101281.19
101291.46
101302.65
101306.62
101315.3
101317.16
101318.96
101319.76
101318.26
101316.89
101309.91
101308.07
101291.3
100917.33
101207.34
101016.02
101138.83
101056.2
101104.93
101072.04
101088.89
101077.75
101083.46
101082.62
101088.26
101094.64
101103.77
101114.69
101127.39
101141.52
101156.61
101172.18
101187.81
101203.2
101218.22
101232.86
101247.29
101260.99
101274.98
101286.15
101299.08
101303.97
101314.02
101316.27
101318.85
101320.04
101320.52
101318.71
101317.19
101309.95
101308.09
101291.06
100917.63
101208.16
101014.14
101138.56
101054.13
101103.89
101069.37
101086.39
101074
101079.22
101077.1
101081.79
101086.99
101095.1
101104.99
101116.79
101130.19
101144.83
101160.25
101176
101191.75
101207.34
101222.71
101238
101252.76
101267.94
101280.17
101294.97
101300.75
101312.38
101315.22
101318.27
101320.17
101320.93
101321.15
101319.08
101317.43
101309.99
101308.11
101290.87
100915.17
101213.24
101012.01
101137.91
101052.16
101103.08
101066.96
101084.19
101070.57
101075.36
101072
101075.76
101079.75
101086.82
101095.63
101106.43
101118.97
101132.98
101148.06
101163.76
101179.75
101195.8
101211.84
101227.95
101243.76
101260.06
101273.57
101290.2
101296.81
101310.37
101313.78
101317.56
101319.8
101321.26
101321.67
101321.66
101319.38
101317.62
101310.01
101308.12
101290.71
100913.89
101214.1
101010.58
101138.44
101050.11
101102.17
101064.8
101082.33
101067.45
101071.87
101067.29
101070.16
101072.95
101078.97
101086.65
101096.36
101107.92
101121.14
101135.69
101151.17
101167.24
101183.63
101200.24
101217.12
101233.94
101251.34
101266.3
101284.61
101292.13
101307.81
101311.93
101316.46
101319.37
101321.1
101322.16
101322.27
101322.08
101319.62
101317.78
101310.03
101308.13
101290.59
100913.11
101215.11
101008.21
101142.01
101048.09
101100.97
101062.69
101080.73
101064.64
101068.73
101062.96
101064.99
101066.56
101071.54
101078.07
101086.64
101097.1
101109.38
101123.23
101138.29
101154.26
101170.85
101187.94
101205.52
101223.29
101241.79
101258.31
101278.11
101286.82
101304.67
101309.44
101314.99
101318.56
101320.89
101322.17
101322.89
101322.77
101322.41
101319.82
101317.9
101310.05
101308.13
101290.49
100912.33
101216.12
101006.88
101142.54
101047.56
101100.71
101060.45
101079.09
101062.11
101065.96
101059
101060.21
101060.58
101064.56
101069.9
101077.31
101086.58
101097.78
101110.75
101125.2
101140.89
101157.5
101174.93
101193.13
101211.8
101231.38
101249.46
101270.66
101280.94
101300.88
101306.3
101312.94
101317.37
101320.3
101322.14
101323.04
101323.48
101323.16
101322.68
101319.98
101318.01
101310.06
101308.13
101290.42
100911.56
101217.07
101005.96
101143.12
101045.92
101103.31
101058.49
101077.18
101059.63
101063.49
101055.42
101055.84
101055.01
101057.99
101062.16
101068.38
101076.4
101086.41
101098.34
101111.98
101127.18
101143.63
101161.26
101179.96
101199.46
101220.1
101239.73
101262.34
101274.51
101296.31
101302.43
101310.28
101315.59
101319.34
101321.75
101323.16
101323.74
101323.96
101323.48
101322.91
101320.1
101318.09
101310.08
101308.14
101290.35
100910.96
101218
101005.04
101143.73
101044.97
101103.35
101058.62
101076.13
101056.97
101061.05
101052.17
101051.9
101049.84
101051.85
101054.85
101059.88
101066.6
101075.33
101086.07
101098.72
101113.22
101129.3
101146.94
101166.02
101186.27
101207.94
101229.08
101253.14
101267.29
101290.81
101297.86
101306.99
101313.19
101317.8
101320.98
101322.93
101323.99
101324.31
101324.35
101323.74
101323.08
101320.2
101318.15
101310.09
101308.14
101290.31
100910.93
101218.87
101004.1
101144.31
101044.32
101103.54
101057.29
101078.11
101054.8
101058.37
101048.99
101048.32
101045.1
101046.15
101047.96
101051.81
101057.22
101064.58
101074.01
101085.5
101099.09
101114.58
101132.04
101151.32
101172.22
101194.88
101217.47
101243.03
101259.2
101284.53
101292.76
101303.01
101310.13
101315.65
101319.64
101322.33
101323.89
101324.65
101324.76
101324.66
101323.95
101323.23
101320.29
101318.2
101310.09
101308.14
101290.27
100911.68
101219.45
101003.31
101144.87
101043.68
101103.82
101056.54
101077.67
101055.35
101056.53
101045.64
101044.81
101040.73
101040.91
101041.51
101044.19
101048.26
101054.23
101062.24
101072.4
101084.89
101099.56
101116.62
101135.89
101157.32
101180.87
101204.88
101232
101250.22
101277.46
101286.97
101298.27
101306.35
101312.83
101317.69
101321.15
101323.42
101324.66
101325.18
101325.13
101324.91
101324.12
101323.34
101320.35
101318.24
101310.1
101308.15
101290.23
100909.82
101219.15
101003.13
101145.41
101043.03
101104.09
101056.06
101077.55
101054.08
101058.05
101042.97
101041.09
101036.43
101036.08
101035.55
101037.04
101039.75
101044.28
101050.81
101059.5
101070.7
101084.32
101100.74
101119.8
101141.57
101165.9
101191.31
101220.09
101240.32
101269.56
101280.37
101292.77
101301.9
101309.32
101315.07
101319.37
101322.38
101324.29
101325.27
101325.61
101325.42
101325.11
101324.25
101323.43
101320.41
101318.28
101310.11
101308.15
101290.21
100909.53
101216.19
101003.96
101145.86
101042.5
101104.33
101055.59
101077.57
101053.39
101057.17
101043.66
101038.3
101031.84
101031.25
101030
101030.41
101031.73
101034.78
101039.76
101046.87
101056.62
101068.95
101084.5
101103.07
101125
101149.96
101176.8
101207.22
101229.43
101260.81
101272.97
101286.54
101296.78
101305.13
101311.77
101316.92
101320.74
101323.37
101325
101325.76
101325.95
101325.65
101325.27
101324.37
101323.5
101320.45
101318.3
101310.11
101308.15
101290.19
100908.91
101216.6
101003.02
101145.86
101042.38
101104.6
101055.13
101077.58
101052.97
101056.75
101042.24
101039.54
101028.16
101025.99
101024.38
101024.22
101024.26
101025.79
101029.13
101034.56
101042.73
101053.56
101067.98
101085.79
101107.64
101133.06
101161.25
101193.26
101217.54
101251.25
101264.71
101279.48
101290.9
101300.27
101307.79
101313.8
101318.44
101321.85
101324.17
101325.56
101326.16
101326.22
101325.84
101325.4
101324.45
101323.56
101320.48
101318.32
101310.11
101308.15
101290.17
100908.21
101217.24
101002.78
101143.94
101042.89
101104.9
101054.77
101077.58
101052.57
101056.55
101041.47
101038.09
101029.35
101021.89
101018.14
101017.89
101017.23
101017.36
101019
101022.64
101029.09
101038.22
101051.29
101068.04
101089.56
101115.21
101144.63
101178.21
101204.75
101240.89
101255.58
101271.64
101284.27
101294.67
101303.14
101309.99
101315.45
101319.67
101322.74
101324.81
101326.01
101326.47
101326.44
101325.99
101325.51
101324.52
101323.61
101320.51
101318.34
101310.12
101308.15
101290.16
100907.6
101217.72
101002.12
101144.28
101041.42
101105.03
101054.77
101077.64
101052.18
101056.36
101041
101037.33
101027.14
101024.21
101013.18
101010.73
101009.97
101009.4
101009.45
101011.21
101015.78
101023.03
101034.54
101049.9
101070.84
101096.43
101126.93
101162.09
101191.03
101229.63
101245.59
101263.01
101276.86
101288.33
101297.77
101305.52
101311.8
101316.81
101320.66
101323.46
101325.32
101326.37
101326.72
101326.61
101326.12
101325.59
101324.58
101323.65
101320.53
101318.35
101310.12
101308.15
101290.15
100907.11
101218.15
101001.42
101144.73
101041.08
101103.15
101055.18
101077.84
101051.91
101056.18
101040.57
101036.91
101026.07
101021.26
101016.5
101005.14
101001.69
101001.12
101000.36
101000.36
101002.91
101008.08
101017.81
101031.49
101051.56
101076.75
101108.11
101144.85
101176.21
101217.32
101234.72
101253.61
101268.69
101281.23
101291.65
101300.33
101307.47
101313.28
101317.91
101321.46
101324.03
101325.72
101326.65
101326.92
101326.76
101326.21
101325.66
101324.62
101323.68
101320.55
101318.36
101310.12
101308.14
101290.13
100906.72
101218.56
101000.8
101145.05
101040.5
101103.24
101053.24
101078.07
101051.96
101056.08
101040.17
101036.52
101025.47
101020.03
101012.28
101010.03
100995.19
100991.63
100990.89
100989.97
100990.61
100993.5
101001.22
101012.92
101031.83
101056.22
101088.23
101126.44
101160.25
101204.13
101223.05
101243.42
101259.8
101273.42
101284.81
101294.4
101302.43
101309.07
101314.48
101318.79
101322.1
101324.49
101326.05
101326.88
101327.08
101326.86
101326.29
101325.71
101324.66
101323.7
101320.56
101318.37
101310.11
101308.13
101290.12
100906.43
101218.9
101000.27
101145.34
101039.87
101103.36
101052.87
101075.89
101052.34
101056.22
101039.9
101036.16
101024.9
101019.43
101010.78
101004.48
101001.47
100984.19
100980.01
100979.12
100978.76
100979.44
100984.91
100994.29
101011.77
101034.91
101067.33
101106.78
101143.11
101189.99
101210.45
101232.4
101250.18
101264.93
101277.28
101287.75
101296.66
101304.16
101310.38
101315.45
101319.5
101322.61
101324.85
101326.3
101327.06
101327.21
101326.95
101326.35
101325.76
101324.69
101323.72
101320.57
101318.38
101310.11
101308.12
101290.1
100906.23
101219.17
100999.84
101145.59
101039.32
101103.38
101052.31
101075.76
101049.88
101056.48
101039.97
101035.95
101024.41
101018.85
101010.13
101002.83
100994.42
100991.89
100971.39
100966.67
100966.4
100965.82
100969.07
100975.77
100991.5
101012.93
101045.48
101085.81
101124.76
101174.81
101196.84
101220.5
101239.83
101255.78
101269.11
101280.45
101290.18
101298.52
101305.57
101311.44
101316.24
101320.07
101323.02
101325.15
101326.51
101327.21
101327.31
101327.02
101326.4
101325.79
101324.71
101323.74
101320.58
101318.37
101310.09
101308.09
101290.07
100906.11
101219.38
100999.51
101145.81
101038.87
101103.38
101051.69
101075.6
101049.45
101053.88
101040.29
101036.05
101024.15
101018.38
101009.46
101002.2
100992.56
100983.39
100980.24
100956.62
100952.25
100951.62
100953.64
100957.58
100971.19
100990.37
101022.76
101063.49
101105.15
101158.49
101182.14
101207.7
101228.72
101245.98
101260.34
101272.54
101283.06
101292.17
101300.04
101306.72
101312.3
101316.87
101320.53
101323.35
101325.38
101326.68
101327.33
101327.39
101327.08
101326.44
101325.82
101324.73
101323.75
101320.58
101318.36
101310.06
101308.04
101290.05
100906.05
101219.51
100999.26
101145.96
101038.5
101103.38
101051.15
101075.32
101048.85
101053.55
101037.33
101036.33
101024.33
101018.22
101008.98
101001.5
100991.92
100981.31
100970.37
100966.23
100940.6
100935.45
100937.62
100939.71
100951.09
100967.39
100999.26
101039.75
101084.24
101140.91
101166.25
101193.93
101216.82
101235.51
101250.98
101264.07
101275.35
101285.2
101293.8
101301.27
101307.65
101312.99
101317.37
101320.89
101323.61
101325.56
101326.81
101327.42
101327.46
101327.13
101326.47
101325.83
101324.74
101323.75
101320.57
101318.33
101310.02
101308
101290.14
100906.02
101219.58
100999.11
101146.06
101038.2
101103.36
101050.68
101075.05
101048.16
101053.12
101036.79
101033.02
101024.72
101018.57
101008.92
101001.07
100991.14
100980.63
100967.97
100955.14
100950.59
100921.73
100919.5
100921.17
100931.25
100944.26
100975.15
101014.59
101062.02
101121.93
101149.03
101179.08
101204.04
101224.34
101241.03
101255.06
101267.12
101277.66
101286.94
101295.13
101302.27
101308.4
101313.55
101317.78
101321.18
101323.81
101325.71
101326.91
101327.49
101327.51
101327.16
101326.49
101325.85
101324.75
101323.75
101320.55
101318.29
101309.98
101308.17
101290.1
100905.99
101219.61
100999.04
101146.1
101037.99
101103.3
101050.29
101074.79
101047.53
101052.55
101036.09
101032.51
101020.38
101019.08
101009.46
101001.12
100990.71
100979.77
100967.21
100952.29
100938.54
100931.2
100903.75
100900.42
100910.73
100921.08
100950.7
100988.04
101038.47
101101.39
101130.33
101163.01
101190.27
101212.39
101230.46
101245.52
101258.39
101269.62
101279.54
101288.37
101296.21
101303.09
101309
101313.99
101318.1
101321.42
101323.98
101325.83
101326.99
101327.55
101327.55
101327.19
101326.51
101325.86
101324.74
101323.73
101320.52
101318.25
101310.14
101308.11
101290.08
100905.95
101219.62
100999.02
101146.1
101037.86
101103.21
101049.97
101074.54
101046.98
101052.01
101035.24
101031.83
101019.93
101013.16
101010.06
101001.77
100990.81
100979.31
100966.22
100951.37
100935.13
100918.32
100912.31
100881.68
100887.97
100897.08
100926.08
100960.28
101013.58
101079.1
101109.95
101145.51
101175.37
101199.59
101219.23
101235.44
101249.18
101261.11
101271.66
101281.08
101289.53
101297.08
101303.74
101309.49
101314.35
101318.36
101321.6
101324.12
101325.92
101327.06
101327.6
101327.58
101327.21
101326.53
101325.86
101324.74
101323.73
101320.5
101318.42
101310.09
101308.1
101290.06
100905.87
101219.62
100999.06
101146.05
101037.79
101103.08
101049.71
101074.27
101046.5
101051.5
101034.45
101030.92
101019.1
101013.26
101001.85
101002.36
100991.5
100979.42
100965.7
100950.24
100933.99
100914.18
100899.03
100887.6
100867.07
100870.71
100900.59
100931.46
100987.56
101054.83
101087.65
101126.38
101159.15
101185.77
101207.25
101224.79
101239.49
101252.16
101263.33
101273.32
101282.32
101290.46
101297.78
101304.27
101309.88
101314.63
101318.57
101321.75
101324.22
101326
101327.12
101327.64
101327.61
101327.23
101326.53
101325.86
101324.75
101323.73
101320.63
101318.37
101310.09
101308.11
101290.04
100905.76
101219.66
100999.11
101145.99
101037.78
101102.93
101049.51
101073.99
101046.06
101051.01
101033.75
101030.06
101017.94
101012.54
101002.92
100991.69
100992
100980.1
100965.77
100949.62
100932.69
100912.68
100894.13
100873.7
100870.72
100845.33
100872.78
100901.09
100960.55
101028.43
101063.12
101105.34
101141.37
101170.76
101194.4
101213.51
101229.31
101242.79
101254.6
101265.14
101274.67
101283.34
101291.22
101298.35
101304.69
101310.19
101314.86
101318.74
101321.87
101324.31
101326.06
101327.16
101327.67
101327.63
101327.23
101326.53
101325.9
101324.8
101323.81
101320.6
101318.38
101310.1
101308.13
101290
100905.62
101219.73
100999.18
101145.92
101037.82
101102.75
101049.36
101073.7
101045.68
101050.52
101033.08
101029.24
101016.81
101011.19
101002.33
100994.17
100978.81
100980.47
100966.41
100949.65
100931.97
100911.16
100892.2
100867.75
100856.97
100843.14
100845.89
100867.87
100932.08
100999.78
101036.12
101081.99
101121.74
101154.32
101180.5
101201.48
101218.59
101232.99
101245.48
101256.58
101266.61
101275.77
101284.16
101291.84
101298.81
101305.03
101310.44
101315.05
101318.87
101321.97
101324.37
101326.11
101327.19
101327.68
101327.63
101327.24
101326.58
101325.99
101324.82
101323.79
101320.61
101318.4
101310.11
101308.14
101289.94
100905.47
101219.87
100999.24
101145.86
101037.9
101102.57
101049.27
101073.39
101045.33
101050.03
101032.46
101028.45
101015.77
101009.88
101000.69
100993.73
100982.9
100964.91
100966.63
100950.24
100931.95
100910.3
100890.45
100865.06
100850.24
100828.22
100840.98
100833.81
100900.84
100968.16
101006.5
101055.94
101099.86
101136.15
101165.32
101188.54
101207.23
101222.71
101235.97
101247.66
101258.19
101267.81
101276.65
101284.81
101292.33
101299.18
101305.3
101310.64
101315.19
101318.98
101322.04
101324.43
101326.15
101327.22
101327.7
101327.65
101327.31
101326.72
101325.94
101324.81
101323.8
101320.63
101318.44
101310.13
101308.16
101289.86
100905.34
101220.06
100999.28
101145.82
101037.99
101102.38
101049.21
101073.07
101045.02
101049.54
101031.86
101027.66
101014.76
101008.64
100999.14
100991.79
100982.47
100970.63
100948.86
100950.31
100932.48
100910.24
100889.46
100862.89
100846.85
100819.83
100826.85
100818.29
100868.52
100931.91
100973.61
101026.88
101075.16
101115.86
101148.57
101174.48
101195.1
101211.9
101226.06
101238.4
101249.44
101259.5
101268.77
101277.37
101285.35
101292.72
101299.47
101305.52
101310.81
101315.31
101319.06
101322.11
101324.47
101326.17
101327.22
101327.71
101327.73
101327.49
101326.62
101325.94
101324.82
101323.83
101320.67
101318.48
101310.16
101308.18
101289.76
100905.25
101220.31
100999.3
101145.83
101038.08
101102.21
101049.19
101072.76
101044.75
101049.03
101031.28
101026.87
101013.76
101007.42
100997.71
100990.02
100980.16
100970.1
100956.03
100930.51
100932.41
100910.77
100889.39
100861.69
100844.29
100814.97
100818.05
100800.78
100851.99
100892.31
100935.47
100994.11
101047.15
101092.82
101129.88
101159.04
101182.01
101200.43
101215.68
101228.78
101240.37
101250.88
101260.55
101269.55
101277.95
101285.77
101293.04
101299.71
101305.7
101310.94
101315.4
101319.13
101322.15
101324.5
101326.18
101327.24
101327.8
101327.93
101327.34
101326.62
101325.97
101324.86
101323.88
101320.71
101318.53
101310.18
101308.19
101289.65
100905.25
101220.58
100999.31
101145.88
101038.16
101102.07
101049.19
101072.45
101044.52
101048.53
101030.73
101026.06
101012.75
101006.16
100996.28
100988.4
100978.17
100967.37
100955.28
100938.79
100910.81
100910.58
100889.95
100861.63
100842.93
100811.45
100812.53
100788.49
100836.96
100868.62
100892.54
100955.29
101015.18
101066.28
101108.64
101141.87
101167.73
101188.15
101204.75
101218.75
101230.98
101241.97
101252.04
101261.41
101270.18
101278.41
101286.12
101293.3
101299.9
101305.84
101311.04
101315.48
101319.18
101322.19
101324.51
101326.2
101327.35
101328.04
101327.75
101327.34
101326.65
101326
101324.9
101323.94
101320.78
101318.61
101310.2
101308.19
101289.53
100905.37
101220.86
100999.33
101145.98
101038.23
101101.96
101049.2
101072.16
101044.32
101048.04
101030.2
101025.25
101011.73
101004.86
100994.81
100986.74
100976.35
100965.15
100952.13
100937.77
100919.74
100887.41
100889.73
100862.36
100842.96
100809.53
100808.52
100779.86
100825.9
100846.34
100864.68
100909.98
100976.58
101035.76
101083.81
101122.42
101151.91
101174.85
101193.13
101208.25
101221.24
101232.77
101243.26
101252.98
101262.09
101270.68
101278.78
101286.39
101293.5
101300.05
101305.95
101311.12
101315.54
101319.22
101322.2
101324.53
101326.32
101327.62
101327.82
101327.75
101327.38
101326.69
101326.05
101324.97
101324.02
101320.87
101318.68
101310.22
101308.19
101289.42
100905.64
101221.11
100999.38
101146.09
101038.28
101101.89
101049.21
101071.91
101044.15
101047.57
101029.69
101024.43
101010.71
101003.53
100993.27
100985.01
100974.46
100963.1
100949.64
100934.17
100918.46
100896.37
100865.33
100862.27
100844.03
100809.55
100806.33
100773.43
100817.82
100829.26
100841.19
100877.93
100929.53
100998.35
101055.17
101099.38
101134.14
101160.22
101180.65
101197.17
101211.09
101223.26
101234.22
101244.3
101253.74
101262.65
101271.09
101279.08
101286.61
101293.67
101300.17
101306.04
101311.19
101315.58
101319.24
101322.23
101324.67
101326.63
101327.36
101327.82
101327.8
101327.42
101326.75
101326.13
101325.07
101324.14
101320.96
101318.76
101310.22
101308.18
101289.33
100906.1
101221.3
100999.49
101146.22
101038.32
101101.86
101049.22
101071.69
101043.99
101047.12
101029.22
101023.63
101009.69
101002.15
100991.69
100983.2
100972.47
100960.93
100947.31
100931.38
100914.42
100894.84
100873.59
100836.8
100844.33
100811.23
100806.55
100769.42
100811.74
100816.21
100823.44
100852.21
100892.46
100950.84
101019.76
101072.84
101112.9
101143.96
101167.04
101185.37
101200.44
101213.39
101224.89
101235.38
101245.14
101254.35
101263.09
101271.41
101279.32
101286.79
101293.8
101300.27
101306.11
101311.24
101315.61
101319.27
101322.37
101325
101326.33
101327.37
101327.88
101327.85
101327.49
101326.83
101326.24
101325.19
101324.26
101321.07
101318.83
101310.22
101308.17
101289.26
100906.8
101221.4
100999.71
101146.35
101038.38
101101.85
101049.22
101071.51
101043.85
101046.71
101028.79
101022.85
101008.69
101000.75
100990.04
100981.3
100970.37
100958.62
100944.81
100928.7
100911.27
100890.37
100871.93
100843.45
100818.2
100812.43
100809.27
100768.8
100807.87
100805.81
100809.85
100831.82
100864.53
100909.48
100972.76
101040.07
101088.47
101124.42
101152.09
101172.59
101189.19
101203.09
101215.25
101226.21
101236.32
101245.82
101254.85
101263.45
101271.68
101279.51
101286.93
101293.91
101300.35
101306.17
101311.26
101315.64
101319.42
101322.74
101324.68
101326.34
101327.43
101327.94
101327.92
101327.58
101326.96
101326.38
101325.35
101324.4
101321.16
101318.88
101310.21
101308.15
101289.2
100907.76
101221.35
101000.06
101146.43
101038.45
101101.86
101049.21
101071.37
101043.72
101046.34
101028.39
101022.12
101007.72
100999.34
100988.36
100979.31
100968.16
100956.17
100942.12
100925.78
100908.18
100886.79
100867.14
100841.63
100822.31
100785.39
100812.13
100772.43
100807.84
100797.65
100799.08
100815.61
100841.89
100879.79
100927.98
100994.05
101058.86
101101.97
101134.12
101158.75
101177.12
101192.29
101205.24
101216.75
101227.27
101237.08
101246.37
101255.24
101263.74
101271.89
101279.67
101287.05
101293.99
101300.41
101306.2
101311.3
101315.8
101319.82
101322.38
101324.69
101326.41
101327.5
101328.02
101328.03
101327.72
101327.12
101326.56
101325.51
101324.54
101321.23
101318.92
101310.2
101308.13
101289.16
100909.06
101221.16
101000.6
101146.46
101038.58
101101.87
101049.21
101071.24
101043.6
101046.02
101028.02
101021.44
101006.8
100997.94
100986.65
100977.26
100965.83
100953.55
100939.24
100922.62
100904.77
100883.21
100863.11
100836.51
100820.64
100785.68
100784.38
100777.97
100814.22
100791.95
100790.61
100802.54
100823.63
100855.03
100897.14
100947.2
101013.77
101075.88
101113.46
101142.19
101164.19
101180.79
101194.79
101206.97
101217.97
101228.13
101237.69
101246.81
101255.56
101263.97
101272.05
101279.79
101287.14
101294.05
101300.44
101306.23
101311.47
101316.23
101319.43
101322.39
101324.77
101326.49
101327.6
101328.15
101328.19
101327.91
101327.32
101326.75
101325.68
101324.65
101321.29
101318.94
101310.19
101308.12
101289.14
100910.98
101220.84
101001.35
101146.39
101038.79
101101.87
101049.21
101071.14
101043.48
101045.72
101027.68
101020.81
101005.93
100996.6
100984.96
100975.17
100963.42
100950.79
100936.15
100919.19
100901.02
100879.2
100858.99
100831.9
100815.55
100783.9
100780.08
100748.64
100825.58
100789.32
100784.65
100792.08
100808.85
100834.61
100870.62
100915.97
100966.65
101031.37
101091.04
101123.12
101148.86
101168.62
101183.76
101196.82
101208.37
101218.95
101228.82
101238.18
101247.16
101255.81
101264.15
101272.19
101279.89
101287.21
101294.09
101300.48
101306.42
101311.93
101315.81
101319.45
101322.48
101324.86
101326.6
101327.73
101328.32
101328.39
101328.13
101327.54
101326.95
101325.82
101324.74
101321.33
101318.95
101310.18
101308.12
101289.12
100913.95
101220.23
101002.4
101146.22
101039.1
101101.82
101049.24
101071.03
101043.36
101045.46
101027.36
101020.24
101005.14
100995.32
100983.3
100973.08