/*--------------------------------*- C++ -*----------------------------------*\
| =========                 |                                                 |
| \\      /  F ield         | OpenFOAM: The Open Source CFD Toolbox           |
|  \\    /   O peration     | Version:  2206                                  |
|   \\  /    A nd           | Website:  www.openfoam.com                      |
|    \\/     M anipulation  |                                                 |
\*---------------------------------------------------------------------------*/
FoamFile
{
    version     2.0;
    format      ascii;
    arch        "LSB;label=32;scalar=64";
    class       volScalarField;
    location    "0.0452892";
    object      T;
}
// * * * * * * * * * * * * * * * * * * * * * * * * * * * * * * * * * * * * * //

dimensions      [0 0 0 1 0 0 0];

internalField   nonuniform List<scalar> 
19794
(
292.95358
292.91487
292.98275
292.93699
292.94382
292.99482
292.93959
292.96722
292.94699
293.0216
292.95063
292.97154
292.96493
292.97537
293.02855
292.95339
292.98531
292.96389
292.99402
292.97796
293.03547
292.96677
292.99053
292.96906
292.99268
292.99219
292.98614
293.0372
292.98544
293.00601
292.96848
292.99711
292.98594
292.99906
292.98506
293.03862
293.00312
293.02596
292.97577
292.99652
292.98572
292.99055
292.99279
292.98356
293.03928
293.00635
293.04286
292.98745
293.00257
292.98164
292.98932
292.97814
292.98606
292.97874
293.03906
293.00422
293.04591
292.99348
293.01155
292.98315
292.98577
292.97453
292.96725
292.97612
292.97105
293.0365
292.9967
293.04319
292.99154
293.01432
292.98524
292.98794
292.97082
292.96349
292.95458
292.96509
292.9623
293.0316
292.98372
293.03371
292.98302
293.0102
292.98284
292.9888
292.97252
292.96155
292.95134
292.94271
292.95439
292.95366
293.02515
292.96791
293.0184
292.96866
292.99871
292.9725
292.98477
292.97144
292.96549
292.95096
292.94021
292.9321
292.94459
292.94579
293.01803
292.95164
293.00042
292.95021
292.98071
292.95426
292.97225
292.96438
292.96494
292.95695
292.9418
292.93025
292.92274
292.93589
292.93896
293.0109
292.93465
292.98206
292.93071
292.9589
292.92961
292.95108
292.94827
292.95784
292.95687
292.95041
292.93393
292.92153
292.91454
292.9284
292.93331
293.00417
292.91608
292.96315
292.91172
292.93664
292.9024
292.92345
292.92306
292.94113
292.94979
292.95153
292.94524
292.92725
292.91391
292.90738
292.92219
292.92891
292.99807
292.89622
292.943
292.89262
292.91532
292.87586
292.89382
292.89158
292.91509
292.93275
292.94563
292.94804
292.9412
292.92156
292.90726
292.9012
292.91733
292.92582
292.99272
292.8759
292.92183
292.87254
292.89448
292.85123
292.86524
292.85846
292.8829
292.90648
292.92968
292.94388
292.94629
292.93802
292.91668
292.90151
292.89595
292.91388
292.92426
292.98816
292.8561
292.90044
292.85159
292.87337
292.82826
292.8391
292.82656
292.84913
292.87433
292.90466
292.92961
292.94418
292.94616
292.93549
292.91253
292.89662
292.89167
292.91207
292.92429
292.98453
292.83779
292.87975
292.83047
292.85205
292.80627
292.81542
292.79739
292.81652
292.84056
292.87388
292.90645
292.93218
292.94627
292.94766
292.93373
292.9091
292.89257
292.88839
292.91199
292.92642
292.98206
292.82168
292.86061
292.80998
292.83104
292.78521
292.79373
292.77128
292.78652
292.80773
292.84144
292.8777
292.91146
292.93703
292.94993
292.95029
292.93288
292.90635
292.88934
292.88617
292.91417
292.93131
292.98133
292.80823
292.84367
292.79082
292.81094
292.76533
292.77388
292.74809
292.75964
292.77718
292.80982
292.84721
292.88524
292.91916
292.94388
292.95523
292.95358
292.93286
292.90422
292.8869
292.88517
292.91931
292.93999
292.9828
292.79757
292.82932
292.77357
292.79225
292.74686
292.75589
292.72777
292.73595
292.74941
292.78027
292.81735
292.85717
292.89584
292.92921
292.95255
292.96232
292.95737
292.93358
292.90263
292.88527
292.8857
292.92851
292.95417
292.98714
292.78964
292.81769
292.75856
292.7754
292.72995
292.73967
292.71019
292.71546
292.72454
292.75324
292.78931
292.82951
292.87046
292.90902
292.94136
292.9629
292.97138
292.96209
292.93496
292.90152
292.88458
292.88854
292.94356
292.9768
292.99589
292.78418
292.80869
292.74587
292.76061
292.71471
292.72513
292.69508
292.69808
292.70255
292.72881
292.76354
292.80341
292.84521
292.88651
292.92447
292.95546
292.97495
292.98172
292.96789
292.93688
292.90089
292.88504
292.89506
292.96704
293.01044
293.00807
292.7812
292.8021
292.7354
292.74794
292.70109
292.71212
292.68209
292.68349
292.68336
292.70689
292.74003
292.77931
292.82125
292.8638
292.90491
292.94198
292.97146
292.98908
292.99274
292.97465
292.93922
292.90084
292.88723
292.90788
293.00176
293.0577
293.01666
292.78054
292.79767
292.727
292.73722
292.68899
292.70047
292.67081
292.67132
292.6667
292.6873
292.71863
292.75718
292.79902
292.84207
292.88477
292.9254
292.96147
292.98936
293.00573
293.00494
292.9823
292.94195
292.90165
292.89202
292.93203
293.05281
293.11475
293.01663
292.78106
292.79533
292.72049
292.72826
292.67836
292.69
292.66085
292.6611
292.6523
292.66977
292.6991
292.73681
292.77848
292.8218
292.86533
292.90787
292.9479
292.98298
293.0092
293.024
293.01851
292.99077
292.94508
292.90383
292.9009
292.97436
293.1188
293.16608
293.00878
292.783
292.79482
292.71569
292.72094
292.6692
292.68061
292.65187
292.65236
292.63982
292.65401
292.68111
292.7179
292.75934
292.80294
292.84707
292.89072
292.93299
292.97246
293.00657
293.03155
293.04345
293.03347
293.00001
292.94869
292.9083
292.91641
293.03873
293.19341
293.18412
292.99954
292.78605
292.79524
292.71238
292.71511
292.66141
292.67228
292.64366
292.64462
292.62893
292.63979
292.66435
292.70012
292.74129
292.78517
292.82995
292.87452
292.9182
292.96022
292.99921
293.03232
293.05666
293.06467
293.04986
293.00995
292.95304
292.91664
292.94016
293.1346
293.24431
293.17615
292.99277
292.78994
292.79676
292.71051
292.71063
292.65495
292.66497
292.63613
292.63757
292.61937
292.6269
292.64856
292.68317
292.72401
292.76815
292.81365
292.85921
292.90411
292.94787
292.98977
293.02835
293.06055
293.08357
293.08793
293.06773
293.02048
292.95857
292.92944
292.9936
293.21543
293.26629
293.16345
292.98692
292.79446
292.79899
292.71006
292.70737
292.64979
292.65866
292.62926
292.63102
292.6109
292.61515
292.63358
292.66679
292.70719
292.75155
292.79778
292.84446
292.89069
292.936
292.97997
293.02188
293.0601
293.09218
293.11287
293.11347
293.08704
293.03145
292.96521
292.95687
293.07155
293.26771
293.26316
293.15243
292.98201
292.79942
292.80167
292.71031
292.7052
292.64587
292.65337
292.6231
292.62488
292.60336
292.60442
292.61929
292.65084
292.69062
292.73511
292.78203
292.82987
292.87759
292.92456
292.97044
293.01479
293.05682
293.09471
293.12656
293.14509
293.14143
293.10766
293.04174
292.97836
292.98946
293.17595
293.27171
293.2584
293.14351
292.97792
292.8047
292.8046
292.71161
292.70404
292.64311
292.64906
292.61771
292.61923
292.59655
292.59463
292.60567
292.63524
292.67418
292.71865
292.76616
292.81511
292.86439
292.91319
292.96109
293.00772
293.05259
293.0949
293.13312
293.1643
293.18052
293.17192
293.12805
293.05363
292.99392
293.04931
293.21319
293.27436
293.25091
293.13645
292.97454
292.81016
292.8076
292.71377
292.7038
292.64165
292.6457
292.61315
292.61412
292.59042
292.58586
292.59278
292.61998
292.65782
292.70209
292.75002
292.79997
292.85075
292.90148
292.95156
293.00058
293.04813
293.09367
293.13648
293.17516
293.20574
293.21943
293.20337
293.14923
293.06099
293.02993
293.08981
293.24286
293.27017
293.24333
293.13091
292.97176
292.81568
292.81049
292.71668
292.70401
292.64131
292.64323
292.60945
292.60961
292.58498
292.57807
292.58067
292.60514
292.64156
292.68539
292.73356
292.78433
292.83649
292.8891
292.94144
292.993
293.04334
293.09196
293.13836
293.18195
293.22118
293.25125
293.26019
293.2369
293.16326
293.0758
293.05506
293.13968
293.25502
293.2645
293.23649
293.12657
292.96949
292.82116
292.81296
292.72024
292.70479
292.64157
292.64155
292.60662
292.60572
292.58024
292.57125
292.56944
292.5908
292.62547
292.66862
292.71681
292.76818
292.8215
292.87584
292.93041
292.98458
293.03784
293.08966
293.13955
293.18702
293.2316
293.27155
293.29917
293.30412
293.2637
293.1758
293.08601
293.08696
293.17715
293.25917
293.25894
293.23063
293.12318
292.96765
292.82673
292.81448
292.72443
292.70598
292.6428
292.64052
292.60466
292.60248
292.5762
292.56536
292.55916
292.57709
292.60967
292.65187
292.69983
292.75156
292.80581
292.86165
292.91829
292.97503
293.03126
293.08642
293.1399
293.19125
293.23999
293.28581
293.32465
293.35078
293.34192
293.28504
293.18034
293.10167
293.11531
293.20408
293.25941
293.25396
293.22581
293.1205
292.96614
292.83019
292.81512
292.72928
292.70725
292.64488
292.64024
292.60369
292.59985
292.57288
292.56039
292.54992
292.56414
292.59428
292.63525
292.68274
292.73459
292.7895
292.84656
292.90503
292.96417
293.02332
293.08186
293.13914
293.19463
293.24749
293.2977
293.34298
293.38162
293.39632
293.37207
293.29332
293.18489
293.11805
293.13962
293.22151
293.2576
293.24955
293.2219
293.1184
292.96493
292.83095
292.8154
292.73461
292.70817
292.64773
292.64031
292.6035
292.59783
292.57025
292.55627
292.54173
292.55206
292.57943
292.61891
292.66567
292.7174
292.7727
292.8307
292.89069
292.95198
293.01388
293.07573
293.13684
293.19657
293.25412
293.30884
293.3587
293.40417
293.43249
293.43158
293.38479
293.29776
293.18739
293.13483
293.16003
293.23204
293.25507
293.24577
293.21875
293.11672
292.96395
292.83168
292.81612
292.73828
292.7089
292.65128
292.64072
292.60389
292.59636
292.56831
292.55286
292.53466
292.54097
292.56525
292.60297
292.64876
292.70013
292.75557
292.81421
292.8754
292.93853
293.00293
293.06791
293.13279
293.19687
293.2594
293.31927
293.37393
293.42392
293.45943
293.47082
293.44602
293.39182
293.29667
293.1897
293.15049
293.17645
293.23801
293.25245
293.24259
293.21623
293.11539
292.96315
292.83234
292.81693
292.73897
292.70965
292.65532
292.64114
292.60508
292.5954
292.56703
292.55011
292.52873
292.53092
292.55184
292.58757
292.63216
292.68293
292.73826
292.79727
292.85935
292.92398
292.99056
293.05842
293.12689
293.19526
293.26288
293.32841
293.38881
293.44372
293.48354
293.50059
293.48617
293.45341
293.39128
293.29254
293.19243
293.16412
293.18915
293.24116
293.25003
293.23995
293.21421
293.11433
292.96251
292.83294
292.81781
292.73949
292.71041
292.65836
292.64166
292.60693
292.59481
292.56653
292.54796
292.52392
292.52192
292.53928
292.5728
292.61598
292.66595
292.72095
292.78006
292.84273
292.90852
292.97692
293.04734
293.11913
293.19165
293.26391
293.33563
293.40257
293.46386
293.5084
293.52787
293.51763
293.49356
293.45204
293.38589
293.28704
293.1956
293.17541
293.1987
293.24265
293.24791
293.23778
293.2126
293.11348
292.96199
292.83349
292.81875
292.73983
292.71122
292.65893
292.64247
292.60924
292.59439
292.56648
292.54637
292.52017
292.51397
292.52765
292.55875
292.60034
292.64932
292.70378
292.76275
292.82572
292.89234
292.96222
293.03485
293.10964
293.18601
293.26315
293.34058
293.41439
293.48326
293.5347
293.5568
293.54715
293.52609
293.49152
293.44498
293.37763
293.28131
293.19896
293.18444
293.20572
293.24322
293.24611
293.23602
293.2113
293.1128
292.96158
292.83398
292.81975
292.74004
292.71207
292.65938
292.64307
292.61121
292.59426
292.56684
292.54521
292.51736
292.50704
292.51697
292.54549
292.58532
292.63315
292.68689
292.74552
292.80853
292.87567
292.94668
293.02114
293.09859
293.17848
293.26009
293.34284
293.42377
293.50075
293.56109
293.58867
293.579
293.55714
293.5247
293.48339
293.43447
293.36807
293.27605
293.20224
293.19149
293.2108
293.24331
293.24461
293.23458
293.21027
293.11225
292.96124
292.83444
292.8208
292.74015
292.71293
292.65972
292.64371
292.6116
292.59462
292.5676
292.54431
292.51534
292.50107
292.50727
292.53307
292.571
292.61754
292.67039
292.72849
292.79132
292.85871
292.9305
293.00644
293.08616
293.16923
293.25502
293.34303
293.43055
293.51559
293.58583
293.62189
293.61519
293.59106
293.55654
293.51683
293.47155
293.42234
293.35842
293.27158
293.20522
293.19691
293.21445
293.24317
293.24338
293.23343
293.20944
293.11181
292.96097
292.83488
292.82191
292.74017
292.71383
292.65997
292.64436
292.61192
292.59493
292.56861
292.54386
292.51395
292.49602
292.49857
292.5215
292.55743
292.60255
292.65439
292.71179
292.77424
292.84162
292.91391
292.99097
293.0726
293.15845
293.24808
293.34099
293.43495
293.52751
293.60782
293.65385
293.65404
293.63102
293.59148
293.54874
293.50485
293.45796
293.41003
293.34947
293.26796
293.20779
293.20103
293.2171
293.24291
293.24237
293.23249
293.20877
293.11146
292.96075
292.83587
292.82305
292.74013
292.71474
292.66015
292.64502
292.61217
292.59529
292.56882
292.54391
292.51323
292.49174
292.49081
292.51082
292.54464
292.58825
292.63895
292.69553
292.75743
292.82458
292.89708
292.97493
293.0581
293.14635
293.23945
293.33691
293.43654
293.53671
293.62658
293.68261
293.69206
293.6753
293.63427
293.58385
293.53608
293.49068
293.44416
293.39854
293.34163
293.2651
293.20992
293.20417
293.21902
293.24262
293.24155
293.23174
293.20824
293.11117
292.96057
292.8395
292.82617
292.74008
292.71568
292.66029
292.64567
292.61236
292.59564
292.56901
292.54402
292.51319
292.48816
292.48387
292.50098
292.53266
292.57467
292.62415
292.67978
292.74099
292.80772
292.88018
292.95853
293.04289
293.13314
293.22932
293.33094
293.43641
293.54361
293.64234
293.70716
293.72647
293.71929
293.68349
293.6289
293.57059
293.52051
293.47586
293.43123
293.38843
293.335
293.26286
293.21165
293.20656
293.22043
293.24234
293.24088
293.23114
293.20781
293.11094
292.96043
292.84239
292.83028
292.73978
292.71663
292.66039
292.64633
292.61251
292.596
292.56915
292.54417
292.51313
292.48646
292.47761
292.49186
292.52148
292.56185
292.61002
292.66462
292.725
292.79115
292.86337
292.94193
293.02716
293.11905
293.21792
293.32329
293.43406
293.54851
293.65565
293.72795
293.75571
293.75911
293.73345
293.68281
293.6173
293.55378
293.50372
293.46159
293.41979
293.37984
293.32953
293.26111
293.21304
293.20839
293.22147
293.24208
293.24034
293.23066
293.20747
293.11075
292.96032
292.84497
292.83221
292.74258
292.71926
292.66049
292.647
292.61264
292.59635
292.56926
292.54433
292.5131
292.48582
292.47414
292.4833
292.51097
292.54978
292.59661
292.65008
292.70954
292.77497
292.84676
292.92529
293.01109
293.10429
293.20542
293.31408
293.42977
293.55067
293.66688
293.74653
293.78059
293.79254
293.7785
293.73835
293.67545
293.60159
293.53527
293.48706
293.4486
293.41006
293.37274
293.32507
293.25975
293.21414
293.20979
293.22226
293.24185
293.23991
293.23027
293.20719
293.11061
292.96023
292.84722
292.83389
292.74539
292.72274
292.66061
292.64767
292.61275
292.59669
292.56935
292.54449
292.51307
292.48534
292.47272
292.47817
292.50097
292.53832
292.58391
292.63623
292.69467
292.75927
292.83046
292.90875
292.99483
293.08901
293.192
293.30354
293.42378
293.55087
293.67605
293.76401
293.80346
293.82064
293.81587
293.78864
293.73628
293.66343
293.58365
293.51661
293.47154
293.43728
293.402
293.36696
293.32147
293.25868
293.21501
293.21086
293.22285
293.24165
293.23956
293.22996
293.20697
293.11049
292.96015
292.84918
292.8355
292.74806
292.72485
292.66338
292.64946
292.61287
292.59704
292.56943
292.54465
292.51305
292.48495
292.47156
292.47603
292.49475
292.52732
292.5718
292.62305
292.68045
292.7441
292.81456
292.89241
292.97852
293.07339
293.17786
293.29186
293.41619
293.54898
293.6831
293.7802
293.82539
293.84649
293.84684
293.82995
293.79138
293.72904
293.64855
293.56506
293.49895
293.45773
293.42768
293.39543
293.36229
293.31858
293.25783
293.21569
293.2117
293.22329
293.24148
293.23927
293.22971
293.20679
293.11039
292.96009
292.85089
292.83708
292.75045
292.72689
292.66602
292.65223
292.613
292.59739
292.56951
292.54481
292.51304
292.48462
292.47058
292.47428
292.49207
292.52029
292.56011
292.61043
292.66686
292.72953
292.79913
292.87637
292.96229
293.05755
293.16318
293.27925
293.4072
293.54492
293.68798
293.79422
293.84587
293.87172
293.87524
293.86387
293.83657
293.78859
293.71827
293.63231
293.54706
293.48304
293.44587
293.41972
293.39012
293.35853
293.31626
293.25716
293.21623
293.21235
293.22364
293.24135
293.23904
293.22951
293.20665
293.11031
292.96005
292.85242
292.83866
292.75257
292.72893
292.66853
292.65416
292.61489
292.59822
292.56959
292.54496
292.51303
292.48435
292.46974
292.47281
292.48988
292.5172
292.5525
292.59819
292.6538
292.71557
292.78424
292.86072
292.94624
293.04162
293.14811
293.26588
293.39704
293.53909
293.69014
293.80552
293.86444
293.89637
293.9033
293.89471
293.87349
293.83754
293.78181
293.70539
293.61593
293.53051
293.46924
293.43593
293.41319
293.38586
293.35553
293.3144
293.25663
293.21665
293.21286
293.2239
293.24123
293.23886
293.22935
293.20654
293.11025
292.96001
292.85379
292.84023
292.75449
292.73096
292.67083
292.65606
292.61663
292.59992
292.5696
292.54512
292.51303
292.48411
292.46901
292.47155
292.48804
292.51466
292.54906
292.59011
292.64108
292.70209
292.76992
292.84556
292.93047
293.02572
293.13279
293.2519
293.3859
293.53174
293.69041
293.81387
293.8802
293.9197
293.93156
293.92513
293.90652
293.87747
293.83439
293.77238
293.69159
293.60036
293.5159
293.45759
293.42775
293.40789
293.38245
293.35312
293.31291
293.2562
293.21699
293.21326
293.22411
293.24114
293.23871
293.22922
293.20644
293.1102
292.95998
292.85504
292.84182
292.75625
292.73301
292.67297
292.65798
292.61832
292.60114
292.57069
292.54542
292.51303
292.48391
292.46836
292.47046
292.48647
292.51255
292.54626
292.58636
292.63258
292.68891
292.75603
292.8309
292.91509
293.00996
293.11731
293.23746
293.37394
293.52306
293.68904
293.81949
293.89268
293.93991
293.9588
293.95619
293.93873
293.91262
293.87738
293.8284
293.76146
293.67783
293.58617
293.50336
293.44794
293.42108
293.4036
293.37973
293.3512
293.31172
293.25587
293.21725
293.21357
293.22427
293.24106
293.2386
293.22911
293.20637
293.11016
292.95995
292.85621
292.84342
292.75789
292.73509
292.67499
292.65994
292.61995
292.60239
292.57161
292.5464
292.51292
292.48373
292.46778
292.46949
292.48512
292.51076
292.54394
292.58333
292.62855
292.68003
292.74236
292.81661
292.90013
292.99447
293.1018
293.22268
293.36128
293.51327
293.68585
293.82225
293.902
293.95635
293.98271
293.98677
293.97221
293.9464
293.91452
293.87441
293.82064
293.74999
293.6648
293.57369
293.49284
293.44005
293.41569
293.40015
293.37755
293.34966
293.31077
293.25559
293.21746
293.21382
293.2244
293.241
293.2385
293.22903
293.20631
293.11013
292.95992
292.85733
292.84505
292.75947
292.7372
292.67694
292.66195
292.62151
292.6037
292.57258
292.54715
292.51335
292.4831
292.46724
292.46863
292.48392
292.50922
292.54198
292.58082
292.62529
292.6757
292.7331
292.80246
292.88545
292.9793
293.08641
293.20768
293.348
293.50251
293.68119
293.82274
293.90847
293.96937
294.00231
294.0136
294.00597
293.98218
293.94973
293.91344
293.86951
293.81199
293.7387
293.65295
293.56298
293.48415
293.43365
293.41135
293.39738
293.37581
293.34844
293.31001
293.25538
293.21763
293.21401
293.2245
293.24095
293.23843
293.22897
293.20627
293.11008
292.95985
292.8584
292.84669
292.76099
292.73935
292.67887
292.66402
292.62306
292.60508
292.57356
292.54796
292.51375
292.48263
292.46558
292.46784
292.48286
292.50788
292.54031
292.57873
292.62261
292.67222
292.72846
292.79285
292.87077
292.96428
293.07118
293.19265
293.33421
293.4909
293.67512
293.82151
293.91254
293.97945
294.01829
294.03527
294.03512
294.01889
293.98779
293.95
293.91031
293.86349
293.80314
293.72812
293.6425
293.55396
293.47703
293.42849
293.40787
293.39516
293.37442
293.34746
293.3094
293.25521
293.21776
293.21417
293.22458
293.24091
293.23836
293.22891
293.20619
293.10998
292.95974
292.85945
292.84835
292.7625
292.74155
292.68081
292.66617
292.62463
292.60654
292.57458
292.54884
292.51426
292.48226
292.46357
292.46544
292.4819
292.5067
292.53887
292.57696
292.62039
292.66937
292.72474
292.78788
292.86079
292.9491
293.0559
293.17766
293.32009
293.4786
293.66773
293.81841
293.91457
293.98701
294.0312
294.05317
294.05801
294.04982
294.02736
293.99034
293.94815
293.90587
293.85696
293.79459
293.71855
293.6335
293.54647
293.47126
293.42435
293.40508
293.39338
293.37331
293.34667
293.30892
293.25507
293.21787
293.21429
293.22464
293.24088
293.23832
293.22883
293.20606
293.10984
292.95958
292.86048
292.85002
292.764
292.7438
292.68279
292.66839
292.62625
292.60809
292.57565
292.54981
292.51487
292.48208
292.46176
292.46236
292.479
292.50563
292.5376
292.57543
292.61853
292.66703
292.72172
292.78392
292.85547
292.93885
293.04019
293.16245
293.30569
293.46584
293.65912
293.81387
293.915
293.9926
294.0415
294.06794
294.07697
294.0732
294.05967
294.03268
293.9908
293.94496
293.90074
293.85041
293.78667
293.71014
293.62589
293.54032
293.46659
293.42102
293.40285
293.39196
293.37243
293.34605
293.30853
293.25496
293.21795
293.21439
293.22469
293.24085
293.23824
293.22868
293.20586
293.10962
292.95934
292.86152
292.85172
292.76549
292.74609
292.68483
292.67071
292.62797
292.60974
292.5768
292.55087
292.51557
292.48207
292.46021
292.45952
292.47521
292.50246
292.53647
292.5741
292.61694
292.66508
292.71925
292.78072
292.85125
292.93315
293.02962
293.14657
293.29057
293.45274
293.64952
293.80797
293.91439
293.99664
294.04974
294.07992
294.09269
294.09256
294.08307
294.06614
294.03581
293.98987
293.94102
293.89538
293.84417
293.77957
293.7029
293.61954
293.53529
293.46283
293.41836
293.40107
293.39082
293.37172
293.34555
293.30822
293.25487
293.21802
293.21447
293.22473
293.24082
293.23811
293.22846
293.20555
293.10929
292.95899
292.86255
292.85343
292.76698
292.74842
292.68694
292.67312
292.62981
292.61152
292.57805
292.55204
292.51638
292.4822
292.45886
292.45695
292.47168
292.49832
292.53318
292.57293
292.61557
292.66343
292.71721
292.77812
292.84784
292.92866
293.02352
293.13619
293.27414
293.4388
293.6389
293.80101
293.91245
293.99947
294.05649
294.0898
294.10539
294.10849
294.10238
294.08928
294.07025
294.03743
293.9881
293.93676
293.89014
293.83844
293.77336
293.69677
293.61428
293.5312
293.45981
293.41623
293.39964
293.38991
293.37116
293.34515
293.30797
293.2548
293.21807
293.21453
293.22479
293.24075
293.2379
293.22812
293.20509
293.10882
292.95851
292.86358
292.85516
292.76844
292.75077
292.68911
292.67562
292.63177
292.61343
292.57944
292.55335
292.51733
292.4825
292.45766
292.45455
292.46839
292.49442
292.52888
292.5696
292.61436
292.66201
292.71549
292.77597
292.84509
292.92505
293.01873
293.12978
293.26348
293.42328
293.62631
293.79317
293.9097
294.00064
294.06197
294.09822
294.11592
294.12108
294.11795
294.10829
294.09302
294.07274
294.03802
293.98588
293.93251
293.88524
293.83334
293.76803
293.69165
293.60997
293.5279
293.45738
293.41453
293.39851
293.38919
293.37071
293.34483
293.30777
293.25474
293.21811
293.21463
293.22491
293.24064
293.23759
293.22761
293.20442
293.10816
292.95787
292.86462
292.85692
292.76986
292.75315
292.69132
292.6782
292.63388
292.61548
292.58098
292.5548
292.51843
292.48295
292.45659
292.45226
292.46524
292.49073
292.52481
292.56527
292.61103
292.66078
292.71403
292.77419
292.84285
292.92215
293.0149
293.12476
293.25658
293.41405
293.61062
293.78334
293.90629
294.00083
294.06598
294.10547
294.12508
294.13142
294.12979
294.12309
294.11161
294.09514
294.07411
294.03793
293.98348
293.92849
293.8808
293.8289
293.76353
293.6874
293.60646
293.52523
293.45544
293.41317
293.3976
293.38861
293.37035
293.34458
293.30761
293.2547
293.21818
293.2148
293.22508
293.24047
293.23712
293.22687
293.2035
293.10729
292.9571
292.86566
292.85872
292.77124
292.75554
292.69355
292.68083
292.63612
292.61766
292.58269
292.55641
292.51971
292.4836
292.45564
292.45002
292.46212
292.48713
292.5209
292.56112
292.60673
292.65746
292.71277
292.77268
292.84099
292.91979
293.01183
293.12074
293.25123
293.40709
293.60137
293.77008
293.90046
294.00012
294.06871
294.11136
294.13316
294.1405
294.13931
294.13377
294.12542
294.11327
294.0962
294.07474
294.03744
293.9811
293.92483
293.8769
293.82509
293.75976
293.68392
293.6036
293.52308
293.45388
293.41209
293.39687
293.38814
293.37007
293.34437
293.30748
293.25462
293.21829
293.21507
293.22533
293.24022
293.23644
293.22585
293.2023
293.10625
292.95623
292.86671
292.86057
292.77254
292.75796
292.69577
292.68351
292.63845
292.61996
292.58456
292.5582
292.52119
292.48444
292.45483
292.44779
292.45896
292.48349
292.51702
292.5571
292.60257
292.65323
292.70946
292.77139
292.83944
292.91785
293.00936
293.11751
293.24698
293.40163
293.59384
293.76398
293.88959
293.99644
294.07045
294.11559
294.14002
294.14855
294.14764
294.14203
294.13469
294.12597
294.11392
294.09661
294.07489
294.03671
293.97886
293.92158
293.87353
293.82188
293.75665
293.68107
293.60129
293.52135
293.45263
293.41122
293.39629
293.38777
293.36984
293.34421
293.30728
293.25448
293.21846
293.21547
293.2257
293.23985
293.23548
293.22453
293.20085
293.10511
292.95537
292.86777
292.8625
292.77378
292.7604
292.69795
292.68623
292.64086
292.62237
292.5866
292.56014
292.52288
292.48551
292.45418
292.44555
292.45569
292.47972
292.51304
292.55304
292.59848
292.6491
292.70534
292.76809
292.83811
292.91624
293.00734
293.11492
293.2436
293.39722
293.58809
293.75737
293.88615
293.98659
294.07011
294.11976
294.14488
294.15547
294.155
294.14915
294.14145
294.13377
294.12548
294.11397
294.09662
294.07474
294.03589
293.97682
293.91876
293.87066
293.81921
293.75409
293.67875
293.59943
293.51996
293.45163
293.41052
293.39583
293.38747
293.36965
293.34396
293.30692
293.25427
293.21872
293.21605
293.22619
293.23929
293.23422
293.22292
293.19926
293.10397
292.95458
292.86886
292.86452
292.77495
292.76289
292.70006
292.68897
292.64328
292.62485
292.58876
292.56223
292.52478
292.48682
292.45373
292.4433
292.45228
292.47574
292.50884
292.54882
292.5943
292.64497
292.70124
292.76408
292.83479
292.91489
293.00568
293.11282
293.24091
293.39367
293.58352
293.75246
293.87953
293.98456
294.06315
294.12177
294.14999
294.16002
294.16114
294.15533
294.14709
294.13891
294.13182
294.12442
294.11369
294.09641
294.07443
294.03505
293.97503
293.91635
293.86826
293.81699
293.75199
293.67687
293.59792
293.51885
293.45083
293.40997
293.39546
293.38724
293.36937
293.3435
293.30635
293.25394
293.2191
293.21686
293.22679
293.2385
293.23267
293.22115
293.19767
293.10293
292.95392
292.86997
292.86665
292.77606
292.76543
292.70211
292.69173
292.64569
292.62739
292.59101
292.56444
292.52688
292.48838
292.45355
292.44105
292.44871
292.4715
292.50435
292.5443
292.58988
292.64068
292.69708
292.76002
292.83092
292.9115
293.0043
293.1111
293.23874
293.39081
293.5799
293.74845
293.87476
293.97728
294.06286
294.11636
294.15404
294.1645
294.16456
294.16008
294.15186
294.14283
294.13531
294.12941
294.1231
294.11323
294.09609
294.07404
294.03426
293.97347
293.91433
293.86626
293.81517
293.75029
293.67535
293.59671
293.51795
293.45019
293.40952
293.39517
293.38687
293.36886
293.34279
293.3055
293.25346
293.21963
293.2179
293.22744
293.23745
293.23091
293.21938
293.19624
293.10207
292.95341
292.87114
292.86891
292.77714
292.76806
292.70409
292.69452
292.64806
292.62997
292.59331
292.56675
292.52914
292.49019
292.45363
292.43885
292.44498
292.46694
292.49947
292.5394
292.5851
292.63608
292.69268
292.75582
292.82692
292.90779
293.0008
293.10967
293.23698
293.3885
293.57699
293.74522
293.87078
293.97237
294.05523
294.11747
294.14854
294.17004
294.16711
294.16184
294.15455
294.14579
294.13748
294.13133
294.12688
294.1217
294.11271
294.09574
294.07362
294.03354
293.97214
293.91263
293.86461
293.81368
293.7489
293.67412
293.59573
293.51723
293.44968
293.40917
293.39471
293.38622
293.36807
293.34171
293.30422
293.25277
293.22033
293.21913
293.22802
293.23619
293.22912
293.21776
293.19505
293.10141
292.95304
292.87239
292.87131
292.77822
292.7708
292.70602
292.69735
292.65036
292.63255
292.5956
292.56911
292.53152
292.49223
292.45405
292.43674
292.44113
292.46208
292.49418
292.53402
292.57984
292.63103
292.68789
292.75131
292.82268
292.90385
292.9973
293.10597
293.23554
293.38661
293.57465
293.74263
293.86753
293.96815
294.0505
294.10951
294.15058
294.16199
294.17343
294.16193
294.15422
294.14654
294.13862
294.13176
294.12737
294.12449
294.12034
294.11219
294.09538
294.07323
294.0329
293.97103
293.91124
293.86325
293.81247
293.74779
293.67313
293.59495
293.51666
293.44927
293.40862
293.39389
293.3852
293.36687
293.34011
293.30238
293.25181
293.22116
293.22042
293.2284
293.23482
293.22747
293.21643
293.19413
293.10093
292.95278
292.87373
292.87386
292.77932
292.77368
292.70794
292.70025
292.6526
292.63515
292.59787
292.57149
292.53395
292.49444
292.4548
292.43478
292.43723
292.45695
292.48844
292.52811
292.574
292.62542
292.68257
292.74631
292.81804
292.89956
292.99346
293.1027
293.23152
293.3851
293.57276
293.74058
293.86489
293.96459
294.04631
294.10499
294.14163
294.16391
294.16035
294.16813
294.1511
294.14371
294.13739
294.13121
294.12619
294.12367
294.12233
294.1191
294.11168
294.09505
294.07286
294.03234
293.9701
293.91009
293.86215
293.81148
293.74688
293.67234
293.59432
293.5162
293.44863
293.40763
293.39263
293.38366
293.36509
293.3378
293.29985
293.25057
293.22205
293.22158
293.22851
293.23349
293.22607
293.2154
293.19347
293.1006
292.9526
292.87523
292.87661
292.78051
292.77673
292.70988
292.70325
292.65478
292.63776
292.60008
292.57386
292.53639
292.49678
292.45585
292.43305
292.43338
292.45161
292.4823
292.52165
292.56753
292.61913
292.67658
292.74068
292.8128
292.89475
292.98914
293.09896
293.22864
293.38035
293.57131
293.73897
293.86278
293.96164
294.04271
294.10075
294.13667
294.15231
294.16186
294.14753
294.15584
294.13705
294.13202
294.12798
294.12405
294.12104
294.12035
294.12044
294.11801
294.11122
294.09475
294.07253
294.03187
293.96933
293.90915
293.86126
293.81069
293.74615
293.6717
293.59382
293.51547
293.44746
293.4061
293.39072
293.38137
293.36253
293.33463
293.29656
293.24907
293.22285
293.22246
293.22838
293.23233
293.22499
293.21465
293.19301
293.10037
292.95249
292.87705
292.87959
292.78183
292.78
292.71191
292.7064
292.65694
292.6404
292.60222
292.57621
292.53878
292.49918
292.45716
292.43162
292.42966
292.44617