/*--------------------------------*- C++ -*----------------------------------*\
| =========                 |                                                 |
| \\      /  F ield         | OpenFOAM: The Open Source CFD Toolbox           |
|  \\    /   O peration     | Version:  2206                                  |
|   \\  /    A nd           | Website:  www.openfoam.com                      |
|    \\/     M anipulation  |                                                 |
\*---------------------------------------------------------------------------*/
FoamFile
{
    version     2.0;
    format      ascii;
    arch        "LSB;label=32;scalar=64";
    class       volVectorField;
    location    "0.0452892";
    object      U_0;
}
// * * * * * * * * * * * * * * * * * * * * * * * * * * * * * * * * * * * * * //

dimensions      [0 1 -1 0 0 0 0];

internalField   nonuniform List<vector> 
19794
(
(61.668488 6.3363697 0)
(61.538322 6.0495817 9.2411947e-22)
(60.957989 6.5800733 -4.3190001e-22)
(61.578861 5.9194882 -9.8915803e-22)
(60.778862 6.4628444 4.6214618e-22)
(60.420101 6.5028351 0)
(61.598091 5.7537335 0)
(60.835742 6.4385875 9.889071e-22)
(60.141098 6.2368409 -9.2401706e-22)
(60.164744 6.5944956 -4.3182656e-22)
(61.681047 5.5975033 0)
(60.903265 6.3815496 -1.0582238e-21)
(60.192608 6.1041495 1.9776453e-21)
(59.845036 6.3740487 1.3861139e-21)
(60.005381 6.6246081 0)
(61.799556 5.4451751 -2.4230768e-21)
(61.083929 6.3336941 -2.2645888e-21)
(60.270972 5.9213163 -1.0581326e-21)
(59.905332 6.2641445 -9.8884565e-22)
(59.628052 6.3387378 0)
(59.914479 6.6827263 -4.3168691e-22)
(61.951638 5.3106455 2.5933751e-21)
(61.323313 6.2845871 4.8463701e-21)
(60.50642 5.7441157 -2.2639644e-21)
(60.01684 6.1044212 0)
(59.663214 6.1549826 9.8852607e-22)
(59.49946 6.388104 -4.6175548e-22)
(59.829559 6.7395693 0)
(62.124484 5.1984217 -5.5491547e-21)
(61.605241 6.2440579 -2.5929194e-21)
(60.822255 5.5723526 3.982921e-25)
(60.316976 5.9591878 0)
(59.761279 5.9061561 -1.0578197e-21)
(59.513972 6.1781671 1.9768333e-21)
(59.360973 6.4180519 0)
(59.739128 6.8045753 4.315181e-22)
(62.309492 5.1086355 5.9387521e-21)
(61.902357 6.2134937 0)
(61.19139 5.426903 3.5598961e-25)
(60.704374 5.8276932 0)
(60.074853 5.6719894 -2.2633258e-21)
(59.605647 5.8965038 -1.0575843e-21)
(59.34695 6.1555565 9.8810604e-22)
(59.21612 6.4636622 -1.3850618e-21)
(59.6389 6.8764533 -4.3142487e-22)
(62.496149 5.041004 6.3534996e-21)
(62.199442 6.195138 0)
(61.575473 5.3118072 2.7738726e-21)
(61.142596 5.7283188 0)
(60.491287 5.4613979 4.8435559e-21)
(59.937203 5.6383302 -2.2628636e-21)
(59.427568 5.8044276 -1.0572622e-21)
(59.18626 6.1496255 1.9757634e-21)
(59.069043 6.5161649 4.616337e-22)
(59.535695 6.9540111 0)
(62.674025 4.9919705 -1.359675e-20)
(62.483325 6.186492 -6.3532734e-21)
(61.955762 5.2279992 0)
(61.587316 5.6616036 -5.5467685e-21)
(60.969193 5.2978706 -5.1824605e-21)
(60.385141 5.4186446 4.8424164e-21)
(59.768796 5.4786542 -2.2621214e-21)
(59.269915 5.734368 -1.056915e-21)
(59.037164 6.1412803 9.8752382e-22)
(58.935959 6.5732724 0)
(59.441061 7.0350348 0)
(62.840064 4.9594876 7.2741929e-21)
(62.74673 6.1844606 1.8670827e-25)
(62.318413 5.1684554 0)
(62.017737 5.6241133 5.9349988e-21)
(61.457092 5.1821326 -2.7722803e-21)
(60.903333 5.2612321 -2.5906641e-21)
(60.236435 5.2039438 4.8407528e-21)
(59.62785 5.3513846 0)
(59.130712 5.6555676 -1.0565427e-21)
(58.911077 6.1306283 9.8720485e-22)
(58.828848 6.6323967 0)
(59.366216 7.117551 0)
(62.991803 4.939084 -7.7815693e-21)
(62.990196 6.1866304 1.4546007e-20)
(62.658483 5.1294811 -6.7947902e-21)
(62.421794 5.6051576 0)
(61.929328 5.1058259 5.9332101e-21)
(61.43314 5.1637096 0)
(60.781886 5.0067397 -5.1794116e-21)
(60.11702 5.0378098 2.4194785e-21)
(59.503429 5.208977 -2.2605669e-21)
(59.014999 5.5728093 -1.0561753e-21)
(58.811627 6.117893 0)
(58.752849 6.6924541 0)
(59.319029 7.2004827 0)
(63.128016 4.9248332 8.3264143e-21)
(63.214105 6.190063 -7.7815208e-21)
(62.974895 5.1068144 7.2704231e-21)
(62.797932 5.5991846 -6.7940068e-21)
(62.373417 5.0565578 -6.347785e-21)
(61.943546 5.1107915 0)
(61.342106 4.8824551 8.3125989e-21)
(60.688618 4.821103 -2.5888371e-21)
(60.008271 4.8491401 4.8372889e-21)
(59.397977 5.0619673 0)
(58.921402 5.4875524 0)
(58.738129 6.1046826 9.8658767e-22)
(58.708237 6.7536622 0)
(59.303595 7.2837377 0)
(63.249871 4.9119997 0)
(63.419378 6.1927528 0)
(63.266359 5.095047 7.7777762e-21)
(63.147256 5.6010509 7.2692708e-21)
(62.787536 5.0269196 4.4405253e-25)
(62.4204 5.08539 -6.3462924e-21)
(61.882195 4.8115198 -5.9294619e-21)
(61.277272 4.6926217 0)
(60.598037 4.6034532 -5.175709e-21)
(59.913062 4.6560805 2.4177711e-21)
(59.308384 4.9116503 0)
(58.847079 5.4021584 -1.0554985e-21)
(58.688268 6.0931422 9.8630678e-22)
(58.693092 6.8170806 -9.2175995e-22)
(59.321366 7.3679258 0)
(63.359377 4.8980843 0)
(63.607796 6.1939483 0)
(63.532653 5.088807 -8.322071e-21)
(63.471121 5.6062736 0)
(63.172008 5.0111015 7.2666036e-21)
(62.861586 5.0770108 6.7901079e-21)
(62.386537 4.7733263 -6.3438504e-21)
(61.845119 4.6275617 -5.9272613e-21)
(61.206741 4.4589858 2.768882e-21)
(60.51518 4.3820542 -2.5869591e-21)
(59.827799 4.4586677 -2.416987e-21)
(59.23147 4.7606713 -2.2583565e-21)
(58.789076 5.3189932 -1.0551992e-21)
(58.659446 6.0854745 9.8611332e-22)
(58.705025 6.8842825 0)
(59.372588 7.4540713 4.3066873e-22)
(63.457972 4.8822623 -1.0194734e-20)
(63.780704 6.1936262 0)
(63.775153 5.0838847 0)
(63.770889 5.6120119 0)
(63.527691 5.0039533 -7.7736455e-21)
(63.268352 5.0784207 7.2642006e-21)
(62.85204 4.7550355 3.4801893e-25)
(62.375483 4.5998924 1.084334e-25)
(61.794535 4.3871715 0)
(61.138591 4.2227498 0)
(60.436372 4.1547995 2.5861061e-21)
(59.749341 4.2595855 1.0790123e-27)
(59.164364 4.6114815 -2.2577267e-21)
(58.744729 5.2402332 0)
(58.649313 6.0838024 9.8582214e-22)
(58.742009 6.9572308 -4.6077105e-22)
(59.457423 7.5434532 0)
(63.54679 4.8646699 1.299229e-24)
(63.938738 6.1920112 1.0194009e-20)
(63.995528 5.0777745 0)
(64.047945 5.6169297 0)
(63.855394 5.0016716 8.317572e-21)
(63.643489 5.0849204 -7.7723145e-21)
(63.279854 4.7483516 7.2618052e-21)
(62.864285 4.5930542 6.7849784e-21)
(62.344177 4.3575502 -6.3392075e-21)
(61.742078 4.1460694 0)
(61.068981 3.9791197 5.5340877e-21)
(60.35871 3.9243137 -3.9122247e-26)
(59.674942 4.0612617 4.8311936e-21)
(59.104564 4.4662372 -2.2571557e-21)
(58.711713 5.1678352 -1.0546858e-21)
(58.655935 6.0902149 0)
(58.802791 7.0381591 0)
(59.576773 7.6374699 4.3049515e-22)
(63.627129 4.8459559 1.3030938e-24)
(64.082652 6.1894883 -6.4219867e-25)
(64.194939 5.069544 0)
(64.302951 5.6206311 0)
(64.156115 5.0013286 0)
(63.989021 5.0940072 0)
(63.673312 4.7485909 0)
(63.312704 4.59708 -7.2586238e-21)
(62.851145 4.3505739 2.5084711e-25)
(62.307775 4.1172762 0)
(61.683276 3.8960587 -5.9210139e-21)
(60.995207 3.7307476 2.7661722e-21)
(60.279561 3.6931677 -5.1692906e-21)
(59.602183 3.8658503 2.4149786e-21)
(59.04987 4.3268308 0)
(58.688057 5.103638 0)
(58.67791 6.1068511 0)
(58.887172 7.12947 -4.6060858e-22)
(59.732989 7.7375446 0)
(63.700171 4.8267579 1.3008414e-24)
(64.213565 6.1864295 -1.1668178e-20)
(64.374596 5.0592456 1.0901796e-20)
(64.535837 5.6232144 -1.0188719e-20)
(64.43068 5.0011919 0)
(64.30635 5.1042658 0)
(64.034608 4.7531828 0)
(63.724771 4.6070773 7.7663213e-21)
(63.316399 4.3548533 7.2562152e-21)
(62.830779 4.1136883 -6.7796479e-21)
(62.26067 3.8665853 6.3349643e-21)
(61.615635 3.6396536 0)
(60.914691 3.4803586 2.7654412e-21)
(60.196571 3.4636512 0)
(59.528863 3.6753076 0)
(58.998316 4.1949821 -2.2561867e-21)
(58.672139 5.04951 0)
(58.714468 6.135975 -9.8530211e-22)
(58.996347 7.2337195 0)
(59.930662 7.845105 4.3036072e-22)
(63.766949 4.8074357 1.3355909e-20)
(64.332688 6.1830446 0)
(64.536104 5.0473608 -1.1664276e-20)
(64.746805 5.6249673 9.0829092e-25)
(64.679461 5.0005703 0)
(64.59643 5.1151846 0)
(64.365227 4.7605185 0)
(64.103329 4.620997 0)
(63.744206 4.3650123 0)
(63.31163 4.1221142 1.4506619e-20)
(62.796 3.864912 -6.7776201e-21)
(62.200436 3.6082812 -6.3331651e-21)
(61.536525 3.3795539 0)
(60.82489 3.2303529 0)
(60.107489 3.2378551 2.583498e-21)
(59.452956 3.4914601 2.4139453e-21)
(58.948154 4.0723958 -2.2557855e-21)
(58.662745 5.0074545 1.0541245e-21)
(58.765714 6.1799723 0)
(59.13357 7.3536171 -4.6048955e-22)
(60.177663 7.9615845 0)
(63.828443 4.7880835 -1.4287004e-20)
(64.441305 6.1794245 -1.3353873e-20)
(64.68117 5.0343784 0)
(64.936861 5.6261711 2.3324833e-20)
(64.90304 4.9994491 1.0896179e-20)
(64.859689 5.1266553 1.0182189e-20)
(64.666376 4.7697159 0)
(64.450348 4.6380468 -8.8885805e-21)
(64.137883 4.3791669 0)
(63.754641 4.1364493 -7.7602477e-21)
(63.289232 3.8759423 0)
(62.744322 3.6076552 6.7756508e-21)
(62.124366 3.3450684 -6.3315943e-21)
(61.443289 3.1182742 0)
(60.723379 2.9829051 -2.7642266e-21)
(60.010142 3.0178371 -2.5830072e-21)
(59.372579 3.3161188 2.4135156e-21)
(58.897893 3.9609445 -2.2554362e-21)
(58.659218 4.9797216 2.1078822e-21)
(58.833077 6.2413956 -9.85086e-22)
(59.305478 7.4921381 0)
(60.486392 8.0884423 4.3025904e-22)
(63.88552 4.7686943 1.528574e-20)
(64.54069 6.1755577 1.4286813e-20)
(64.811482 5.0205381 -1.3349195e-20)
(65.107475 5.626991 -1.2477406e-20)
(65.102702 4.9979818 -2.3315944e-20)
(65.096739 5.1387005 -1.0435658e-24)
(64.9389 4.7803415 1.0178038e-20)
(64.767279 4.6578969 9.5108524e-21)
(64.499844 4.3968945 0)
(64.163604 4.1548913 0)
(63.744645 3.8927673 0)
(63.246615 3.6207306 0)
(62.672785 3.3445499 9.8595618e-26)
(62.029609 3.0795507 0)
(61.333166 2.8582019 5.9155087e-21)
(60.607736 2.7401356 -2.7640369e-21)
(59.90237 2.8056483 0)
(59.28601 3.151245 4.826334e-21)
(58.846366 3.8627709 -4.5102712e-21)
(58.661737 4.9689317 1.0538745e-21)
(58.920242 6.3231413 9.8501393e-22)
(59.524558 7.6527728 -4.604062e-22)
(60.874225 8.2270858 0)
(63.938921 4.7493294 0)
(64.632032 6.1714307 0)
(64.928683 5.0058167 1.4282494e-20)
(65.260343 5.6274213 0)
(65.280164 4.9962026 1.2472876e-20)
(65.308966 5.1512084 -1.1655953e-20)
(65.183742 4.7922183 -1.0890498e-20)
(65.055074 4.6802933 0)
(64.831795 4.4181175 0)
(64.541366 4.177407 0)
(64.166436 3.9135159 0)
(63.71152 3.6397258 0)
(63.180523 3.3589836 7.2471756e-21)
(62.578256 3.078229 0)
(61.913141 2.8141744 -6.3289168e-21)
(61.203324 2.6018227 1.1828786e-20)
(60.47554 2.5042345 5.5269184e-21)
(59.782087 2.6034693 -2.582075e-21)
(59.191692 2.999075 2.4128105e-21)
(58.792851 3.7802859 -2.2548827e-21)
(58.671809 4.9781528 -1.0537807e-21)
(59.03493 6.428716 0)
(59.813213 7.8395914 0)
(61.360284 8.3781768 0)
(63.989237 4.7302037 0)
(64.716393 6.1670817 3.2702008e-20)
(65.034321 4.9901352 -3.055756e-20)
(65.397269 5.6273303 -1.4280332e-20)
(65.437302 4.9938902 -1.3343081e-20)
(65.498273 5.1639072 0)
(65.402452 4.805057 0)
(65.314626 4.7049215 -1.0885536e-20)
(65.134859 4.4426916 0)
(64.889888 4.2042427 0)
(64.557728 3.938407 -8.8779328e-21)
(64.143561 3.6625588 0)
(63.651671 3.3796442 0)
(63.087537 3.0933959 0)
(62.457373 2.8112202 6.7712856e-21)
(61.771784 2.5513982 -6.3279383e-21)
(61.050781 2.35166 -5.9134095e-21)
(60.324292 2.2776635 -5.52619e-21)
(59.647285 2.4137534 0)
(59.08829 2.8621326 -6.3764961e-26)
(58.73733 3.7162006 -2.2546684e-21)
(58.69335 5.0111674 0)
(59.19254 6.5627785 0)
(60.208647 8.0565005 0)
(61.954176 8.5393414 0)
(64.036928 4.7116652 3.7427985e-20)
(64.794682 6.1626136 -6.9971184e-20)
(65.129813 4.9735246 2.1139354e-24)
(65.520033 5.6266092 1.5278428e-20)
(65.576082 4.9906589 1.4276165e-20)
(65.666721 5.1763931 -1.3340522e-20)
(65.597036 4.8183632 0)
(65.547319 4.7311664 1.1680102e-24)
(65.409907 4.4703215 0)
(65.210486 4.2354324 0)
(64.920604 3.9678992 1.2027508e-24)
(64.546004 3.6895426 0)
(64.090975 3.4040691 0)
(63.561375 3.1152774 0)
(62.964005 2.8266106 -7.2444193e-21)
(62.30659 2.5461293 6.7703553e-21)
(61.602086 2.2937196 6.3273977e-21)
(60.872423 2.1102944 1.1825858e-20)
(60.151421 2.0632651 -5.5255737e-21)
(59.496046 2.2392931 -1.420958e-25)
(58.974807 2.7431216 2.4122799e-21)
(58.681033 3.6735867 0)
(58.734945 5.0730084 0)
(59.423089 6.7321143 0)
(60.762654 8.3051249 0)
(62.63717 8.7018075 0)
(64.08223 4.6941387 -2.3877618e-24)
(64.867673 6.1581636 3.7428385e-20)
(65.216413 4.9562103 2.1189955e-24)
(65.630274 5.6252476 0)
(65.698451 4.986195 3.0544543e-20)
(65.816409 5.18823 2.8546018e-20)
(65.769615 4.8315065 0)
(65.755036 4.7581691 2.4922291e-20)
(65.658011 4.5003539 0)
(65.504115 4.2707525 1.0875753e-20)
(65.25651 4.0021612 1.016255e-20)
(64.920948 3.7212726 0)
(64.5017 3.4324913 0)
(64.004615 3.1408728 0)
(63.436702 2.8494133 0)
(62.80603 2.561358 -1.4486624e-20)
(62.12202 2.2855652 5.6600815e-26)
(61.400277 2.0438405 -1.2653324e-20)
(60.664985 1.8805988 1.1824772e-20)
(59.954297 1.8642588 8.2873795e-21)
(59.326588 2.0831179 2.5813412e-21)
(58.85087 2.6449158 0)
(58.62746 3.6561193 -2.2543521e-21)
(58.814376 5.1709918 2.1071659e-21)
(59.781232 6.9470222 9.8496384e-22)
(61.521942 8.5783399 0)
(63.349854 8.8473459 0)
(64.125367 4.6780276 -2.3285845e-24)
(64.936021 6.1538651 4.0040347e-20)
(65.295194 4.9385803 3.7418456e-20)
(65.729446 5.6233711 0)
(65.806237 4.9804061 -6.5357721e-20)
(65.949332 5.1990999 -4.5809741e-20)
(65.922345 4.8438601 0)
(65.939814 4.7850425 -2.6664191e-20)
(65.880581 4.5317963 0)
(65.771729 4.3096086 -1.1637079e-20)
(65.566523 4.041034 1.0871032e-20)
(65.269922 3.7580557 0)
(64.885894 3.4655535 0)
(64.420432 3.1701642 8.8707434e-21)
(63.880251 2.8758967 0)
(63.273391 2.5849036 5.2909622e-25)
(62.609245 2.3003143 -7.2427062e-21)
(61.89936 2.0322014 6.7690165e-21)
(61.162232 1.8049117 3.3762881e-25)
(60.425028 1.665973 4.5139573e-25)
(59.73027 1.684168 -2.7620996e-21)
(59.13744 1.9483809 0)
(58.717379 2.570728 2.4118895e-21)
(58.58477 3.669019 -2.2542385e-21)
(58.9677 5.3163263 -1.0536141e-21)
(60.350508 7.2155689 0)
(62.478421 8.8587509 0)
(64.012405 8.9492018 4.2993903e-22)
(64.166516 4.6636244 -4.582404e-20)
(65.00018 6.1499005 -4.2835481e-20)
(65.367053 4.921084 -4.0028574e-20)
(65.81881 5.6212106 -3.7414594e-20)
(65.901116 4.973455 2.038899e-24)
(66.067288 5.2088751 6.5346492e-20)
(66.057302 4.854984 3.0528586e-20)
(66.10376 4.8110494 1.4264418e-20)
(66.07911 4.5635513 -1.3325576e-20)
(66.014492 4.3510422 0)
(65.851572 4.0840107 -1.3178132e-24)
(65.594151 3.7998186 1.0866835e-20)
(65.245121 3.5036699 1.0154521e-20)
(64.810777 3.2037554 -9.4909526e-21)
(64.297651 2.9056048 0)
(63.713204 2.6120734 1.6580088e-20)
(63.066584 2.3244462 0)
(62.368683 2.0461611 -7.2420554e-21)
(61.633753 1.7890367 1.6441019e-25)
(60.883435 1.5806458 3.7833857e-25)
(60.148899 1.470418 5.9118624e-21)
(59.476776 1.5267251 0)
(58.9278 1.8383639 -2.5809444e-21)
(58.577715 2.5244292 0)
(58.570667 3.7201875 -2.2541742e-21)
(59.265357 5.5202179 0)
(61.212662 7.5511745 -9.8511687e-22)
(63.534011 9.107288 -4.6031944e-22)
(64.571647 8.9853764 0)
(64.205666 4.6511639 0)
(65.060624 6.1463609 0)
(65.432724 4.9041497 4.2825023e-20)
(65.899466 5.6190587 8.0054685e-20)
(65.984608 4.9656904 3.7403294e-20)
(66.171892 5.2176248 -6.9910373e-20)
(66.176373 4.8646978 -2.0786067e-24)
(66.248983 4.8357223 3.0520235e-20)
(66.255165 4.5946393 1.425824e-20)
(66.233572 4.3939476 0)
(66.11271 4.1302454 -1.324614e-24)
(65.894642 3.8461703 -2.3252473e-20)
(65.580736 3.5468353 -1.0864562e-20)
(65.177215 3.2421314 0)
(64.690743 2.9390124 -9.4880954e-21)
(64.12826 2.6417821 -8.8690861e-21)
(63.498093 2.3520746 -8.2889867e-21)
(62.810635 2.0706372 7.7481651e-21)
(62.078634 1.80185 -7.2418825e-21)
(61.319653 1.5597887 2.2314426e-25)
(60.558943 1.3753307 -6.3255228e-21)
(59.832728 1.2983716 5.911638e-21)
(59.191566 1.3958128 8.2857399e-21)
(58.698286 1.7567029 0)
(58.440137 2.511511 2.4116164e-21)
(58.622642 3.8241653 0)
(59.81957 5.8299909 1.0537593e-21)
(62.391226 7.9028045 0)
(64.511754 9.2895265 9.2046672e-22)
(64.936669 8.9727182 5.9706757e-21)
(64.242908 4.6407451 0)
(65.117768 6.1433653 0)
(65.492833 4.8881847 0)
(65.972374 5.6172213 -8.5643382e-20)
(66.058068 4.9575449 -4.0012617e-20)
(66.264611 5.2255713 3.7396773e-20)
(66.281268 4.8730631 -3.494464e-20)
(66.377475 4.8588991 -3.2654772e-20)
(66.41047 4.6243342 3.0506992e-20)
(66.430102 4.4372988 0)
(66.351026 4.1787299 -1.3313436e-20)
(66.172451 3.8964271 1.2438621e-20)
(65.89386 3.5947399 0)
(65.521203 3.285352 0)
(65.061094 2.9766365 2.0301386e-20)
(64.520324 2.6743018 9.4868743e-21)
(63.906358 2.3813281 8.8683287e-21)
(63.228592 2.0983697 0)
(62.498928 1.8262422 0)
(61.732488 1.5708853 -1.4483527e-20)
(60.950663 1.3490019 6.7686251e-21)
(60.183307 1.1938369 4.6235117e-25)
(59.472569 1.1545101 5.340206e-25)
(58.873187 1.2955724 5.5237453e-21)
(58.452396 1.7080342 2.5806497e-21)
(58.322578 2.5421691 0)
(58.81534 4.0253274 -2.2541549e-21)
(60.77757 6.1931741 0)
(63.716095 8.2894042 1.6040432e-26)
(65.157061 9.3399824 -1.918725e-20)
(65.153841 8.9544125 0)
(64.278283 4.6323986 0)
(65.171833 6.1409277 0)
(65.547862 4.8734312 0)
(66.038361 5.6159701 4.5810799e-20)
(66.122697 4.949446 4.2807894e-20)
(66.346773 5.2330154 4.0006307e-20)
(66.373527 4.8803006 0)
(66.491102 4.8806401 0)
(66.546845 4.6522292 -2.2998129e-24)
(66.605286 4.4802225 3.0491743e-20)
(66.567524 4.228507 0)
(66.428689 3.9497368 0)
(66.185585 3.6468231 0)
(65.844014 3.3331768 -1.1618059e-20)
(65.41024 3.0186118 -1.0859427e-20)
(64.890982 2.7101613 -1.2122085e-24)
(64.293154 2.4122163 9.4861115e-21)
(63.624994 2.1265983 0)
(62.897256 1.853527 -8.2885415e-21)
(62.123696 1.5945643 7.7479166e-21)
(61.322469 1.3575109 -7.2417991e-21)
(60.519405 1.1617575 3.3759905e-25)
(59.750495 1.0414568 -6.3253965e-21)
(59.064727 1.0437897 -5.9108433e-21)
(58.52199 1.2307798 -2.7615258e-21)
(58.199 1.699859 0)
(58.260496 2.6446857 2.4114636e-21)
(59.299184 4.2869685 0)
(62.15403 6.7504967 1.0540873e-21)
(64.755674 8.4898092 1.3694451e-20)
(65.503361 9.3369148 0)
(65.31771 8.9351267 0)
(64.311831 4.6261049 5.9991911e-20)
(65.22315 6.139058 5.6094954e-20)
(65.598231 4.8600643 0)
(66.098152 5.6155123 4.9006984e-20)
(66.179555 4.9417615 0)
(66.419582 5.240276 -4.2800341e-20)
(66.454552 4.8867038 -3.9992913e-20)
(66.59158 4.9011469 0)
(66.666171 4.678192 -6.9841024e-20)
(66.760432 4.5220269 -6.5247481e-20)
(66.763187 4.2787197 0)
(66.6644 4.0052544 0)
(66.457037 3.7023664 -1.3299951e-20)
(66.146829 3.3851588 2.4858318e-20)
(65.739624 3.0647689 0)
(65.241841 2.7495925 -1.2936349e-24)
(64.66014 2.4452749 -1.0149055e-20)
(64.001752 2.1550371 -9.4857768e-21)
(63.276 1.8800172 8.8678728e-21)
(62.495332 1.6206364 8.2887206e-21)
(61.675815 1.3796722 0)
(60.839397 1.1668126 -1.4484183e-20)
(60.017499 1.0035788 6.7689401e-21)
(59.25415 0.92387852 6.3260104e-21)
(58.606568 0.97164959 5.9113769e-21)
(58.141846 1.2080679 5.5233876e-21)
(57.955702 1.750895 2.5804421e-21)
(58.340229 2.794359 0)
(60.248939 4.8458588 -2.2545224e-21)
(63.524053 7.1326574 0)
(65.322497 8.5552414 0)
(65.743266 9.3218563 0)
(65.444626 8.9179061 0)
(64.34356 4.6218021 -6.4168383e-20)
(65.271935 6.1377075 -1.2000723e-19)
(65.644341 4.8481622 5.6083429e-20)
(66.1524 5.6160182 -5.2426424e-20)
(66.229603 4.9347809 0)
(66.484116 5.2476413 0)
(66.525621 4.8925805 4.2786681e-20)
(66.680465 4.920683 -3.9983426e-20)
(66.770348 4.7023031 3.7360818e-20)
(66.896995 4.5622152 3.4904349e-20)
(66.939001 4.3286364 0)
(66.880567 4.0622072 3.0456416e-20)
(66.70929 3.760629 1.4229226e-20)
(66.430808 3.4407252 -1.3736291e-24)
(66.05055 3.1147614 0)
(65.574493 2.7925195 -1.1614954e-20)
(65.008983 2.4808611 0)
(64.360645 2.184233 1.0148705e-20)
(63.63733 1.9051135 9.4858423e-21)
(62.849797 1.6445514 -8.8681283e-21)
(62.01254 1.4036127 0)
(61.144562 1.1863981 7.7484736e-21)
(60.272564 1.0044784 -7.2423602e-21)
(59.43564 0.8806231 -6.7688075e-21)
(58.688325 0.84733819 -6.3256019e-21)
(58.098031 0.94484208 6.1462734e-25)
(57.741855 1.2436633 -2.7613447e-21)
(57.767815 1.8438705 0)
(58.719397 3.1967507 0)
(61.495042 5.3217255 0)
(64.381109 7.2984989 -3.6510477e-20)
(65.715955 8.5984597 0)
(65.91549 9.3021186 -6.1755062e-21)
(65.544235 8.9033736 0)
(64.373513 4.6193217 0)
(65.318175 6.1368161 6.4182284e-20)
(65.686456 4.8377019 -1.1998832e-19)
(66.20164 5.6175623 0)
(66.2737 4.9287109 0)
(66.541337 5.2553428 0)
(66.587899 4.8982186 0)
(66.759151 4.9395168 4.2776358e-20)
(66.861213 4.724782 -3.9967539e-20)
(67.016571 4.6004792 -3.7340189e-20)
(67.095988 4.3776434 -3.487957e-20)
(67.078126 4.1199174 -6.5167136e-20)
(66.943335 3.8209243 -3.044066e-20)
(66.69705 3.4992773 -1.4223685e-20)
(66.344234 3.1681567 1.3291608e-20)
(65.890382 2.8386955 1.2423235e-20)
(65.341383 2.5190234 0)
(64.703401 2.2146878 0)
(63.983198 1.929374 -1.0148836e-20)
(63.189609 1.6653717 9.4862824e-21)
(62.335166 1.4240602 0)
(61.436808 1.2072786 -8.2897548e-21)
(60.517353 1.0203752 0)
(59.609888 0.87681516 0)
(58.764283 0.79980401 0)
(58.049121 0.818962 -6.3258098e-21)
(57.542264 0.9811938 0)
(57.351339 1.3216679 -5.5231027e-21)
(57.722995 2.1187056 0)
(59.459447 3.6105191 -6.7066442e-20)
(62.448251 5.5757812 3.9061145e-20)
(65.041378 7.4440186 0)
(65.987536 8.6174705 1.9857927e-20)
(66.043087 9.2823662 7.6859263e-21)
(65.622935 8.8913912 -2.2180247e-21)
(64.402004 4.6183416 -7.3396048e-20)
(65.361547 6.1363256 0)
(65.724948 4.8286425 6.4175734e-20)
(66.246356 5.6201501 5.9992436e-20)
(66.312551 4.9236816 5.6061469e-20)
(66.5921 5.2635353 0)
(66.642438 4.9038624 0)
(66.828864 4.9578932 0)
(66.940487 4.7459219 4.2760083e-20)
(67.120866 4.6366981 7.9898684e-20)
(67.23524 4.4252365 3.7317994e-20)
(67.257973 4.1777961 3.4858869e-20)
(67.160076 3.8826427 6.5129998e-20)
(66.946548 3.5602618 0)
(66.621786 3.2245126 -1.4219363e-20)
(66.190794 2.8878195 -1.4384419e-24)
(65.658891 2.5596215 -1.2421921e-20)
(65.031758 2.2465982 -1.161209e-20)
(64.315369 1.9534478 0)
(63.516898 1.6836453 -1.1747013e-24)
(62.646531 1.439696 -9.4870561e-21)
(61.718921 1.2233848 8.8694443e-21)
(60.754028 1.037249 -8.2905718e-21)
(59.779718 0.88806885 0)
(58.838368 0.79108162 0)
(57.995403 0.76857681 0)
(57.334523 0.85990607 0)
(56.960846 1.0634143 1.1822259e-20)
(57.018327 1.5478334 -5.5227004e-21)
(57.950708 2.4217668 7.1741081e-20)
(60.171609 3.8829436 -4.1780397e-20)
(63.313964 5.8285271 0)
(65.518033 7.5351338 9.666715e-25)
(66.179851 8.6240092 -8.2448066e-21)
(66.139779 9.2645548 -2.3887095e-21)
(65.685334 8.8816199 0)
(64.429629 4.6186777 1.5698265e-19)
(65.402357 6.1361475 -7.3423854e-20)
(65.760122 4.8209129 0)
(66.286827 5.6237639 -6.4173497e-20)
(66.346885 4.919782 -1.1994215e-19)
(66.637173 5.2723079 5.605157e-20)
(66.690192 4.9097046 0)
(66.890668 4.976014 -4.8952627e-20)
(67.009734 4.7660182 0)
(67.211607 4.6709235 -4.2739812e-20)
(67.35793 4.4710271 0)
(67.420978 4.235329 0)
(67.360326 3.9452502 -6.9671093e-20)
(67.180178 3.6231932 0)
(66.884175 3.2834348 -3.0416838e-20)
(66.476847 2.9396129 -1.4216267e-20)
(65.962857 2.6024772 2.657635e-20)
(65.347307 2.279938 1.242293e-20)
(64.635535 1.9776847 0)
(63.83343 1.7001492 -1.3289179e-24)
(62.948907 1.4509908 2.0299582e-20)
(61.993872 1.2330011 9.4881248e-21)
(60.985532 1.048219 8.8704348e-21)
(59.947775 0.89992813 0)
(58.915634 0.79678378 0)
(57.94576 0.75486128 0)
(57.121993 0.81102488 6.7706601e-21)
(56.560659 0.950032 6.7316191e-25)
(56.383135 1.2896936 5.9104606e-21)
(56.89806 1.7945025 0)
(58.273789 2.6437231 4.4689283e-20)
(60.958388 4.1802538 0)
(64.019656 6.0093173 -4.5533669e-20)
(65.860608 7.593516 -1.7671298e-20)
(66.319619 8.6244893 5.1307296e-21)
(66.214183 9.249259 -2.9626946e-21)
(65.734912 8.8737005 0)
(64.456096 4.6209862 -8.3934339e-20)
(65.443331 6.135987 7.8526282e-20)
(65.792101 4.8144631 0)
(66.323015 5.6283166 0)
(66.37732 4.9170355 6.4151393e-20)
(66.677224 5.2817183 -1.1991857e-19)
(66.732031 4.9158881 5.6031828e-20)
(66.945493 4.9940276 1.0473532e-19)
(67.070325 4.785342 0)
(67.290475 4.7033312 0)
(67.465312 4.514747 0)
(67.568005 4.2920714 3.9889777e-20)
(67.544823 4.0082777 3.7265248e-20)
(67.398697 3.6876519 -3.4815132e-20)
(67.132218 3.344592 3.2538111e-20)
(66.749475 2.9938644 3.0409207e-20)
(66.254408 2.6474694 -1.4214388e-20)
(65.651423 2.314643 0)
(64.945229 2.0021742 -1.2421783e-20)
(64.140754 1.7153714 -1.1614725e-20)
(63.244001 1.4588163 -1.0858719e-20)
(62.263983 1.2364115 -1.015167e-20)
(61.214749 1.0510555 9.4894527e-21)
(60.116792 0.90495775 0)
(58.999405 0.80258526 0)
(57.908953 0.75391856 -7.7515917e-21)
(56.920053 0.79352651 4.3583506e-25)
(56.154373 0.90498283 -6.7706395e-21)
(55.747559 1.1921232 -6.3269143e-21)
(56.006549 1.5304193 0)
(56.917164 1.9795468 0)
(58.744613 2.9028748 -5.5718459e-20)
(61.715703 4.4216414 3.2476091e-20)
(64.572762 6.1413397 3.7849365e-20)
(66.108169 7.631185 0)
(66.423474 8.6222241 3.1880766e-21)
(66.272036 9.2364572 0)
(65.774357 8.8673059 -1.0300041e-21)
(64.479337 4.6266076 0)
(65.487492 6.1353365 8.3978716e-20)
(65.820614 4.8091333 0)
(66.355469 5.6336803 -7.3422567e-20)
(66.40434 4.9154618 0)
(66.712701 5.2917377 6.4137513e-20)
(66.768728 4.9225143 -1.1987672e-19)
(66.994166 5.0120312 -1.1203765e-19)
(67.123446 4.8041193 0)
(67.359053 4.7341686 0)
(67.558716 4.5562608 0)
(67.699925 4.347647 -4.2674893e-20)
(67.714248 4.0713085 -3.9859119e-20)
(67.602749 3.7532706 7.4482168e-20)
(67.366582 3.4077066 0)
(67.00942 3.0504306 -3.2528934e-20)
(66.534437 2.6945741 3.0404477e-20)
(65.945231 2.350735 0)
(65.245788 2.0269583 2.6576061e-20)
(64.440243 1.7295131 1.242286e-20)
(63.533134 1.463771 1.1614735e-20)
(62.530837 1.2345243 1.0859031e-20)
(61.44388 1.0457679 -1.0725688e-24)
(60.289182 0.90023493 0)
(59.091651 0.80077451 0)
(57.889332 0.75226838 8.2939991e-21)
(56.742839 0.78449938 2.5993519e-25)
(55.764768 0.88435005 0)
(55.108181 1.1592623 6.7707943e-21)
(55.141458 1.4478341 8.7951806e-20)
(55.813837 1.7088202 -1.0235776e-19)
(57.08245 2.1931808 5.9603895e-20)
(59.301671 3.1372514 -3.4744364e-20)
(62.393171 4.6151819 2.3621419e-24)
(64.99524 6.2370096 -1.1796265e-20)
(66.289293 7.6557057 0)
(66.502006 8.6189055 -3.9520654e-21)
(66.317347 9.2259011 1.1252079e-21)
(65.805775 8.8621552 0)
(64.497198 4.6315107 0)
(65.526009 6.1343872 -1.7938263e-19)
(65.845767 4.8043871 8.3988026e-20)
(66.386257 5.6396933 1.5706202e-19)
(66.428296 4.9150721 -7.3395338e-20)
(66.743825 5.302306 0)
(66.800947 4.9296438 6.4115411e-20)
(67.037402 5.0300771 1.3589113e-24)
(67.170125 4.8225216 5.5996592e-20)
(67.418772 4.7637014 0)
(67.63952 4.5955493 0)
(67.817633 4.4017491 0)
(67.869247 4.1339703 4.2638912e-20)
(67.792895 3.8197167 -3.1020894e-24)
(67.5878 3.4725368 0)
(67.257244 3.1092174 0)
(66.8036 2.7438541 -3.2523155e-20)
(66.229578 2.3883693 0)
(65.538296 2.0521821 -1.4214196e-20)
(64.733107 1.7427132 -1.3290155e-20)
(63.81742 1.4661631 -1.5912967e-24)
(62.795462 1.2280364 -1.1618163e-20)
(61.674327 1.0331869 -1.266625e-24)
(60.466791 0.88535951 0)
(59.193714 0.787731 0)
(57.887468 0.74234799 0)
(56.596317 0.77302161 -8.295233e-21)
(55.413969 0.86636203 0)
(54.491973 1.1382369 7.2465344e-21)
(54.27927 1.4288236 -9.4125333e-20)
(54.772786 1.6358722 1.0954917e-19)
(55.770025 1.9055825 0)
(57.368266 2.3925461 -4.7086339e-24)
(59.889335 3.3420846 -2.16673e-20)
(62.966257 4.765169 1.2629296e-20)
(65.31456 6.306353 0)
(66.423746 7.6718791 4.2545631e-21)
(66.562186 8.6153799 -4.8792154e-21)
(66.353018 9.2172769 0)
(65.830819 8.8580134 7.3699323e-22)
(64.500133 4.6316594 0)
(65.530305 6.1353435 4.9460076e-19)
(65.870954 4.7994077 -1.7946167e-19)
(66.417119 5.6462716 -8.3991322e-20)
(66.449282 4.9158192 7.8504207e-20)
(66.771262 5.3133179 0)
(66.829255 4.937327 0)
(67.075733 5.0481841 6.4098015e-20)
(67.211244 4.8406664 -1.1980044e-19)
(67.470898 4.7921757 5.5971535e-20)
(67.709118 4.6326856 0)
(67.922059 4.4541388 0)
(68.010458 4.1959306 0)
(67.969638 3.8866779 -3.1689879e-24)
(67.796292 3.5388533 0)
(67.493354 3.1701496 0)
(67.062347 2.7954252 0)
(66.505045 2.4278192 0)
(65.823552 2.0781624 3.0403337e-20)
(65.020332 1.7552206 0)
(64.09784 1.4662176 -1.7107112e-24)
(63.058642 1.2173654 1.2426956e-20)
(61.906825 1.0141458 -1.1620545e-20)
(60.650855 0.86102622 0)
(59.306831 0.76243719 1.0156223e-20)
(57.90279 0.71989004 0)
(56.478975 0.75318652 0)
(55.111288 0.8437215 0)
(53.929531 1.1077445 -7.7540258e-21)
(53.445199 1.4101786 0)
(53.746497 1.6259249 0)
(54.571485 1.8374676 6.8283779e-20)
(55.857677 2.0849417 3.9771033e-20)
(57.744347 2.5730445 -4.636619e-20)
(60.457446 3.5130984 -2.7031498e-20)
(63.433675 4.8797162 0)
(65.555716 6.3568585 0)
(66.524941 7.6827318 5.2709232e-21)
(66.608766 8.6120479 0)
(66.381207 9.2102729 -8.2504698e-22)
(65.850797 8.8546869 0)
(64.506621 4.6307086 -9.8807594e-19)
(65.528231 6.1364998 0)
(65.892418 4.7957018 4.7060139e-19)
(66.441782 5.653619 0)
(66.467894 4.9174346 8.3960703e-20)
(66.796623 5.3246554 0)
(66.854067 4.9455994 -7.3351577e-20)
(67.109525 5.0663378 0)
(67.247518 4.8586319 6.4073774e-20)
(67.516517 4.819798 -1.1974673e-19)
(67.768886 4.6678082 0)
(68.014169 4.5046425 -5.2232858e-20)
(68.138526 4.2568909 0)
(68.133452 3.953851 -3.2333217e-24)
(67.992404 3.6064221 -4.2575711e-20)
(67.71803 3.2331437 0)
(67.310942 2.8494111 0)
(66.771966 2.469426 0)
(66.102067 2.1053721 -3.2521722e-20)
(65.302648 1.7674896 0)
(64.375208 1.4642679 -1.4218222e-20)
(63.321018 1.2028159 -1.3295093e-20)
(62.141765 0.98918977 -1.2429812e-20)
(60.841872 0.8282015 0)
(59.432058 0.72539714 -1.086703e-20)
(57.935468 0.68296718 1.0158566e-20)
(56.387141 0.72052919 0)
(54.852652 0.81322038 0)
(53.435041 1.0677178 8.2975736e-21)
(52.67723 1.3699314 2.156087e-19)
(52.754032 1.6082446 0)
(53.406166 1.8359918 7.3051823e-24)
(54.521177 2.0161095 -4.2574472e-20)
(56.057887 2.2453489 -6.446716e-24)
(58.171376 2.7302092 -3.8797324e-24)
(60.972563 3.6513617 1.6856074e-20)
(63.806584 4.966835 0)
(65.738645 6.3939563 0)
(66.602021 7.6901518 0)
(66.645092 8.6090775 0)
(66.403545 9.2046078 9.74608e-22)
(65.866742 8.8520174 4.7825546e-22)
(64.513601 4.6291422 9.932476e-19)
(65.526564 6.1380265 -9.9648543e-19)
(65.900186 4.794683 0)
(66.443489 5.6590665 0)
(66.486855 4.9194127 -1.794339e-19)
(66.821238 5.3362972 -8.3939724e-20)
(66.875849 4.9544287 7.8455688e-20)
(67.139356 5.0844806 0)
(67.279485 4.8764768 0)
(67.556496 4.846723 6.404482e-20)
(67.820133 4.7010944 0)
(68.09497 4.5531472 1.1174585e-19)
(68.254127 4.3165865 0)
(68.284803 4.0209381 -4.8736096e-20)
(68.176437 3.6749919 9.1068372e-20)