/*--------------------------------*- C++ -*----------------------------------*\
| =========                 |                                                 |
| \\      /  F ield         | OpenFOAM: The Open Source CFD Toolbox           |
|  \\    /   O peration     | Version:  2206                                  |
|   \\  /    A nd           | Website:  www.openfoam.com                      |
|    \\/     M anipulation  |                                                 |
\*---------------------------------------------------------------------------*/
FoamFile
{
    version     2.0;
    format      ascii;
    arch        "LSB;label=32;scalar=64";
    class       volScalarField;
    location    "0.02";
    object      alphat;
}
// * * * * * * * * * * * * * * * * * * * * * * * * * * * * * * * * * * * * * //

dimensions      [1 -1 -1 0 0 0 0];

internalField   nonuniform List<scalar> 
1396
(
2.7772295e-08
2.7772295e-08
2.7772295e-08
2.7772295e-08
2.7772295e-08
2.7772295e-08
2.7772295e-08
2.7772295e-08
2.7772294e-08
2.7772294e-08
2.7772293e-08
2.7772292e-08
2.7772288e-08
2.7772274e-08
2.7772295e-08
2.7772295e-08
2.7772295e-08
2.7772295e-08
2.7772295e-08
2.7772295e-08
2.7772295e-08
2.7772295e-08
2.7772294e-08
2.7772294e-08
2.7772293e-08
2.7772292e-08
2.7772288e-08
2.7772274e-08
2.7772295e-08
2.7772295e-08
2.7772295e-08
2.7772295e-08
2.7772295e-08
2.7772295e-08
2.7772295e-08
2.7772295e-08
2.7772294e-08
2.7772294e-08
2.7772293e-08
2.7772292e-08
2.7772288e-08
2.7772274e-08
2.7772295e-08
2.7772295e-08
2.7772295e-08
2.7772295e-08
2.7772295e-08
2.7772295e-08
2.7772295e-08
2.7772295e-08
2.7772294e-08
2.7772294e-08
2.7772293e-08
2.7772292e-08
2.7772288e-08
2.7772274e-08
2.7772295e-08
2.7772295e-08
2.7772295e-08
2.7772295e-08
2.7772295e-08
2.7772295e-08
2.7772295e-08
2.7772295e-08
2.7772294e-08
2.7772294e-08
2.7772293e-08
2.7772292e-08
2.7772288e-08
2.7772274e-08
2.7772295e-08
2.7772295e-08
2.7772295e-08
2.7772295e-08
2.7772295e-08
2.7772295e-08
2.7772295e-08
2.7772295e-08
2.7772294e-08
2.7772294e-08
2.7772293e-08
2.7772292e-08
2.7772288e-08
2.7772274e-08
2.7772295e-08
2.7772295e-08
2.7772295e-08
2.7772295e-08
2.7772295e-08
2.7772295e-08
2.7772295e-08
2.7772295e-08
2.7772294e-08
2.7772294e-08
2.7772293e-08
2.7772292e-08
2.7772288e-08
2.7772274e-08
6.3847406e-10
6.0103613e-09
1.4982852e-08
7.7056613e-10
7.1472188e-09
1.5580246e-08
8.0253742e-10
7.4365619e-09
1.5792824e-08
9.2473774e-10
8.6743129e-09
1.6274997e-08
9.9009811e-10
9.1523677e-09
1.6449594e-08
1.1135318e-09
1.04345e-08
1.682023e-08
1.1929267e-09
1.1132436e-08
1.674014e-08
1.301073e-09
1.2505812e-08
1.7006194e-08
1.3774477e-09
1.3315053e-08
1.6594994e-08
1.4830658e-09
1.4844176e-08
1.6605524e-08
1.5954826e-09
1.5784725e-08
1.6070758e-08
1.800121e-09
1.7436615e-08
1.5915774e-08
2.1097489e-09
1.851419e-08
1.5272183e-08
2.6359759e-09
2.0074792e-08
1.5036854e-08
1.8564818e-08
3.2807749e-08
2.7501038e-08
1.6676741e-07
6.0180155e-09
9.9422379e-09
1.6755233e-08
3.5825526e-08
6.4618e-08
6.4301193e-08
4.1204734e-08
3.1360837e-08
2.7463505e-08
2.5599847e-08
2.4359981e-08
2.5365765e-08
3.6674003e-08
2.271058e-08
3.3540996e-09
1.3105108e-08
1.6207514e-08
3.4404906e-08
5.4163066e-08
5.2246435e-08
3.6464085e-08
2.9169309e-08
2.644843e-08
2.522215e-08
2.4418337e-08
2.5131861e-08
3.5442547e-08
1.0438138e-08
5.7038703e-09
1.6386869e-08
1.7611433e-08
3.2036578e-08
4.1744487e-08
3.9018225e-08
3.0763846e-08
2.6955267e-08
2.5570506e-08
2.4938356e-08
2.4507434e-08
2.4781493e-08
3.4259411e-08
1.5504489e-08
1.1797663e-08
2.225865e-08
2.2252055e-08
2.999301e-08
3.1459353e-08
2.9120337e-08
2.5963479e-08
2.496717e-08
2.4874757e-08
2.4880572e-08
2.4796186e-08
2.4173903e-08
3.1675754e-08
2.9861618e-08
2.7772239e-08
2.777223e-08
2.7772218e-08
2.7772202e-08
2.777218e-08
2.7772151e-08
2.7772109e-08
2.7772043e-08
2.7771871e-08
2.777e-08
2.7728018e-08
2.7382646e-08
2.6921107e-08
2.2095174e-08
2.777224e-08
2.777223e-08
2.7772218e-08
2.7772202e-08
2.7772181e-08
2.7772151e-08
2.7772109e-08
2.7772044e-08
2.7771868e-08
2.776995e-08
2.7727016e-08
2.737795e-08
2.6910445e-08
2.1966991e-08
2.777224e-08
2.777223e-08
2.7772218e-08
2.7772202e-08
2.7772181e-08
2.7772152e-08
2.777211e-08
2.7772044e-08
2.7771866e-08
2.776991e-08
2.7726261e-08
2.7373968e-08
2.6901264e-08
2.1850509e-08
2.7772239e-08
2.777223e-08
2.7772218e-08
2.7772202e-08
2.7772182e-08
2.7772152e-08
2.777211e-08
2.7772045e-08
2.7771865e-08
2.7769878e-08
2.7725582e-08
2.7370296e-08
2.6892261e-08
2.1735668e-08
2.7772218e-08
2.7772202e-08
2.7772181e-08
2.7772153e-08
2.7772111e-08
2.7772045e-08
2.7771865e-08
2.776985e-08
2.7724946e-08
2.7366827e-08
2.6884322e-08
2.162764e-08
2.7772202e-08
2.7772181e-08
2.7772152e-08
2.7772112e-08
2.7772046e-08
2.7771864e-08
2.7769829e-08
2.7724444e-08
2.7364082e-08
2.6880332e-08
2.1543406e-08
2.7772181e-08
2.7772152e-08
2.7772111e-08
2.7772046e-08
2.7771864e-08
2.7769818e-08
2.7724141e-08
2.7362873e-08
2.6881045e-08
2.1490538e-08
2.777211e-08
2.7772048e-08
2.7771865e-08
2.7769819e-08
2.7724079e-08
2.7363274e-08
2.6880918e-08
2.1465877e-08
2.7772046e-08
2.7771867e-08
2.7769818e-08
2.7724002e-08
2.7362946e-08
2.6873689e-08
2.1419055e-08
2.7771866e-08
2.7769798e-08
2.7723545e-08
2.7359682e-08
2.6859018e-08
2.1311066e-08
2.7769759e-08
2.7722882e-08
2.7356362e-08
2.6865148e-08
2.1202126e-08
2.7723329e-08
2.73653e-08
2.6923455e-08
2.1273424e-08
2.7373282e-08
2.6835844e-08
2.3017578e-08
2.7489023e-08
2.0303229e-08
2.7772295e-08
2.7772295e-08
2.7772295e-08
2.7772295e-08
2.7772295e-08
2.7772295e-08
2.7772294e-08
2.7772294e-08
2.7772293e-08
2.7772292e-08
2.7772288e-08
2.7772275e-08
2.7772292e-08
2.7772288e-08
2.7772275e-08
2.7772275e-08
3.7299567e-08
3.9695078e-08
4.2926704e-08
4.5994804e-08
4.678452e-08
4.7940115e-08
5.0114322e-08
5.1092887e-08
5.1434276e-08
5.1479498e-08
5.023926e-08
4.7394055e-08
4.3111024e-08
3.833317e-08
2.5684942e-08
2.6280236e-08
2.6475368e-08
2.6534335e-08
2.6210185e-08
2.576496e-08
2.5229223e-08
2.4780321e-08
2.4344077e-08
2.3984715e-08
2.3602468e-08
2.3363138e-08
2.3356914e-08
2.3589195e-08
2.4383567e-08
2.4574556e-08
2.4578719e-08
2.4347327e-08
2.396931e-08
2.3583298e-08
2.3274351e-08
2.3097714e-08
2.3029934e-08
2.3144582e-08
2.3561638e-08
2.4472716e-08
2.6197756e-08
2.9414845e-08
2.6073367e-08
2.6615878e-08
2.7348696e-08
2.8190163e-08
2.9262767e-08
3.0740023e-08
3.2587348e-08
3.4769939e-08
3.7363228e-08
4.0541079e-08
4.4590106e-08
4.9848062e-08
5.6684466e-08
6.550401e-08
2.8563685e-08
2.9499402e-08
3.0888898e-08
3.2522206e-08
3.4582646e-08
3.7149667e-08
4.0181355e-08
4.3637582e-08
4.7621671e-08
5.2282645e-08
5.7731662e-08
6.3913464e-08
7.0500925e-08
7.7172787e-08
3.2922484e-08
3.3216389e-08
3.4463053e-08
3.5744988e-08
3.7429265e-08
3.9392119e-08
4.1534747e-08
4.3815455e-08
4.6310027e-08
4.8892803e-08
5.1334504e-08
5.355947e-08
5.5154362e-08
5.5733264e-08
4.3367385e-08
4.0564232e-08
4.061756e-08
4.0127738e-08
4.0209463e-08
4.0571897e-08
4.0938048e-08
4.1215483e-08
4.1458526e-08
4.1577294e-08
4.1511462e-08
4.1235337e-08
4.0689502e-08
3.9790121e-08
6.7501062e-08
6.5614731e-08
6.0597241e-08
5.5528558e-08
5.1257826e-08
4.8502443e-08
4.6350015e-08
4.4298999e-08
4.2429048e-08
4.070759e-08
3.9087015e-08
3.7529088e-08
3.6052653e-08
3.4633269e-08
7.1354194e-08
8.0807587e-08
7.8566075e-08
7.3308679e-08
6.57858e-08
5.8316199e-08
5.3038351e-08
4.9793107e-08
4.7200928e-08
4.4715492e-08
4.2218663e-08
3.980884e-08
3.762301e-08
3.5704045e-08
4.16223e-08
6.0144932e-08
7.0089263e-08
7.4189528e-08
7.0014474e-08
6.1866237e-08
5.595943e-08
5.296452e-08
5.0565896e-08
4.8270959e-08
4.5684395e-08
4.2873262e-08
4.0133525e-08
3.7630778e-08
2.049348e-08
2.9856294e-08
3.4532959e-08
4.2209953e-08
4.7485674e-08
4.6805493e-08
4.3685731e-08
4.164362e-08
4.0987789e-08
4.1014526e-08
4.0851629e-08
4.005855e-08
3.8736307e-08
3.7224257e-08
1.1477579e-08
1.2597722e-08
1.4916923e-08
1.8630105e-08
2.2425522e-08
2.5486516e-08
2.5035157e-08
2.4731931e-08
2.5481164e-08
2.6951036e-08
2.8591677e-08
3.0164199e-08
3.1209342e-08
3.1737322e-08
2.4102905e-08
1.4532235e-08
2.4177206e-08
2.2656441e-08
2.6652613e-08
3.0442985e-08
3.0620145e-08
2.869726e-08
2.8183573e-08
2.8091819e-08
2.8809233e-08
2.9821399e-08
3.0642931e-08
3.0786569e-08
1.1405854e-07
1.0589679e-07
1.0888918e-07
1.09922e-07
9.9291558e-08
9.451282e-08
8.5873318e-08
8.0008269e-08
7.4879222e-08
7.0942435e-08
6.7860654e-08
6.5023957e-08
6.2325295e-08
5.9541651e-08
9.7270213e-08
1.6847601e-08
2.2439052e-07
1.2669177e-08
3.3985317e-08
2.684765e-08
2.742477e-08
2.6059804e-08
2.3148132e-08
1.9582443e-08
1.7442061e-08
1.6791775e-08
1.6766449e-08
1.6752985e-08
4.315284e-08
2.5461187e-09
2.0876434e-07
1.4248549e-08
3.5364181e-08
2.6706789e-08
2.7334802e-08
2.5736484e-08
2.2663849e-08
1.9087919e-08
1.6678767e-08
1.4688442e-08
1.5074379e-08
2.0688625e-08
9.6688506e-08
1.1491353e-08
1.6964974e-07
1.7099567e-08
3.6496433e-08
2.6683404e-08
2.7142419e-08
2.5262597e-08
2.212752e-08
1.9084291e-08
1.7471275e-08
1.5191439e-08
1.751519e-08
3.4723053e-08
9.4940177e-08
3.1781805e-08
1.4301838e-07
2.0879451e-08
3.6910937e-08
2.6834511e-08
2.6955495e-08
2.4893224e-08
2.176932e-08
1.9153811e-08
1.8298178e-08
1.5908169e-08
1.9466067e-08
4.5078204e-08
7.5232923e-08
5.6547028e-08
1.2257914e-07
2.6482902e-08
3.7647936e-08
2.7111355e-08
2.6819364e-08
2.4673138e-08
2.1643187e-08
1.9324327e-08
1.9215656e-08
1.6409048e-08
2.0725595e-08
4.9679982e-08
5.6556483e-08
6.0309994e-08
1.4228979e-07
3.4395703e-08
3.9425541e-08
2.7527794e-08
2.6766222e-08
2.4579827e-08
2.1710869e-08
1.9640443e-08
2.0311608e-08
1.7386494e-08
2.1750072e-08
5.1780349e-08
3.9276198e-08
7.3202154e-08
1.3255523e-07
4.4730606e-08
4.3497155e-08
2.8149528e-08
2.6864804e-08
2.463556e-08
2.2016259e-08
2.0097686e-08
2.158905e-08
1.907188e-08
2.3099713e-08
5.2433533e-08
2.6713007e-08
7.3966192e-08
1.2040531e-07
5.9284123e-08
5.0197841e-08
2.9187161e-08
2.722304e-08
2.4912256e-08
2.2599426e-08
2.0753356e-08
2.298297e-08
2.131572e-08
2.4717848e-08
5.2326985e-08
1.940615e-08
6.6092145e-08
1.0851531e-07
7.6731148e-08
5.8132151e-08
3.1137173e-08
2.7954977e-08
2.5438293e-08
2.3448442e-08
2.1781658e-08
2.4560258e-08
2.4045613e-08
2.6336325e-08
5.1858683e-08
1.6759354e-08
5.7719747e-08
9.7959341e-08
9.2228259e-08
6.8346209e-08
3.4621835e-08
2.9095182e-08
2.6236409e-08
2.4625748e-08
2.3230416e-08
2.6466314e-08
2.6617203e-08
2.7766906e-08
5.1735252e-08
1.6759605e-08
4.5566003e-08
8.3309605e-08
1.0173501e-07
7.8379573e-08
3.9642581e-08
3.0871416e-08
2.7349665e-08
2.6197684e-08
2.5113331e-08
2.8582186e-08
2.9116056e-08
2.8609061e-08
5.1949992e-08
2.0737089e-08
3.5695383e-08
6.5287022e-08
1.0246324e-07
8.5744489e-08
4.5219085e-08
3.3449251e-08
2.8832879e-08
2.8137411e-08
2.7604136e-08
3.0663092e-08
3.1026882e-08
2.9254352e-08
5.2592457e-08
2.5840391e-08
2.8687522e-08
4.8602565e-08
9.2911941e-08
8.8294739e-08
5.1269532e-08
3.5731975e-08
3.0625972e-08
3.0546548e-08
3.0811151e-08
3.2479828e-08
3.2064523e-08
2.9951108e-08
5.405519e-08
3.257368e-08
2.5006824e-08
3.6205582e-08
7.8998573e-08
8.4643374e-08
5.5030713e-08
3.8188147e-08
3.276741e-08
3.3263223e-08
3.4185358e-08
3.4634409e-08
3.1510857e-08
3.0025012e-08
5.5459957e-08
5.9624556e-08
8.1798489e-08
1.7121692e-08
3.8769007e-08
2.5609499e-08
2.828132e-08
2.7756483e-08
2.792204e-08
2.7747721e-08
2.7077491e-08
2.5931438e-08
2.4922557e-08
2.409221e-08
2.3272217e-08
3.1424739e-08
2.7392644e-08
2.974672e-08
2.7120344e-08
2.7986622e-08
2.7714227e-08
2.776138e-08
2.7730805e-08
2.7705364e-08
2.7685049e-08
2.766399e-08
2.7548746e-08
2.7218456e-08
2.6878588e-08
2.7802976e-08
2.7928975e-08
2.771221e-08
2.7806127e-08
2.7759987e-08
2.7773855e-08
2.7770961e-08
2.7772185e-08
2.7768749e-08
2.7755398e-08
2.7728186e-08
2.7677446e-08
2.7592426e-08
2.7483654e-08
2.7771648e-08
2.7769922e-08
2.7773711e-08
2.7770278e-08
2.777174e-08
2.7771172e-08
2.777131e-08
2.7771205e-08
2.7771135e-08
2.7771118e-08
2.7770816e-08
2.7769197e-08
2.7764357e-08
2.7752823e-08
2.7771848e-08
2.7771676e-08
2.7771679e-08
2.7771723e-08
2.7771676e-08
2.7771695e-08
2.7771694e-08
2.77717e-08
2.7771695e-08
2.7771662e-08
2.7771582e-08
2.7771457e-08
2.7771297e-08
2.7770993e-08
2.7771904e-08
2.7771897e-08
2.7771895e-08
2.7771893e-08
2.7771892e-08
2.7771889e-08
2.7771892e-08
2.7771894e-08
2.7771899e-08
2.7771905e-08
2.777191e-08
2.7771911e-08
2.7771906e-08
2.7771897e-08
2.7772015e-08
2.7772009e-08
2.7772009e-08
2.7772009e-08
2.7772009e-08
2.7772007e-08
2.7772008e-08
2.7772009e-08
2.7772011e-08
2.7772014e-08
2.7772017e-08
2.7772022e-08
2.7772027e-08
2.7772032e-08
2.7772084e-08
2.777208e-08
2.7772081e-08
2.777208e-08
2.7772081e-08
2.7772082e-08
2.7772081e-08
2.7772082e-08
2.7772083e-08
2.7772084e-08
2.7772086e-08
2.7772089e-08
2.7772092e-08
2.7772095e-08
2.7772131e-08
2.7772128e-08
2.7772129e-08
2.7772128e-08
2.7772129e-08
2.777213e-08
2.777213e-08
2.777213e-08
2.7772131e-08
2.7772132e-08
2.7772133e-08
2.7772135e-08
2.7772137e-08
2.7772139e-08
2.7772164e-08
2.7772162e-08
2.7772162e-08
2.7772162e-08
2.7772163e-08
2.7772164e-08
2.7772164e-08
2.7772164e-08
2.7772165e-08
2.7772166e-08
2.7772167e-08
2.7772168e-08
2.7772169e-08
2.7772171e-08
2.7772188e-08
2.7772186e-08
2.7772187e-08
2.7772187e-08
2.7772187e-08
2.7772188e-08
2.7772188e-08
2.7772189e-08
2.777219e-08
2.777219e-08
2.7772191e-08
2.7772192e-08
2.7772193e-08
2.7772194e-08
2.7772206e-08
2.7772205e-08
2.7772205e-08
2.7772205e-08
2.7772206e-08
2.7772206e-08
2.7772207e-08
2.7772207e-08
2.7772208e-08
2.7772208e-08
2.7772209e-08
2.777221e-08
2.7772211e-08
2.7772212e-08
2.7772219e-08
2.7772219e-08
2.7772219e-08
2.777222e-08
2.777222e-08
2.777222e-08
2.7772221e-08
2.7772221e-08
2.7772222e-08
2.7772222e-08
2.7772223e-08
2.7772224e-08
2.7772224e-08
2.7772225e-08
2.777223e-08
2.777223e-08
2.777223e-08
2.7772231e-08
2.7772231e-08
2.7772231e-08
2.7772232e-08
2.7772232e-08
2.7772232e-08
2.7772233e-08
2.7772234e-08
2.7772234e-08
2.7772235e-08
2.7772235e-08
5.2693868e-08
2.8193055e-08
2.8179686e-08
2.777735e-08
2.7771931e-08
2.7771853e-08
2.7771972e-08
2.7772051e-08
2.7772104e-08
2.7772142e-08
2.777217e-08
2.7772191e-08
2.7772207e-08
2.7772219e-08
5.1110451e-08
2.8223043e-08
2.8142845e-08
2.7778405e-08
2.777183e-08
2.7771877e-08
2.777199e-08
2.7772065e-08
2.7772115e-08
2.7772151e-08
2.7772177e-08
2.7772197e-08
2.7772212e-08
2.7772224e-08
4.7246306e-08
2.9478269e-08
2.7980551e-08
2.7778615e-08
2.7771741e-08
2.7771892e-08
2.7772005e-08
2.7772077e-08
2.7772125e-08
2.7772159e-08
2.7772183e-08
2.7772202e-08
2.7772216e-08
2.7772228e-08
2.7772295e-08
2.7772295e-08
2.7772295e-08
2.7772295e-08
2.7772295e-08
2.7772295e-08
2.7772295e-08
2.7772295e-08
2.7772295e-08
2.7772295e-08
2.7772295e-08
2.7772295e-08
2.7772295e-08
2.7772295e-08
2.7772295e-08
2.7772295e-08
2.7772295e-08
2.7772295e-08
2.7772295e-08
2.7772295e-08
2.7772295e-08
2.7772295e-08
2.7772295e-08
2.7772295e-08
2.7772295e-08
2.7772295e-08
2.7772295e-08
2.7772295e-08
2.7772295e-08
2.7772295e-08
2.7772295e-08
2.7772295e-08
2.7772295e-08
2.7772295e-08
2.7772294e-08
2.7772294e-08
2.7772295e-08
2.7772295e-08
2.7772295e-08
2.7772295e-08
2.7772295e-08
2.7772295e-08
2.7772295e-08
2.7772295e-08
2.7772294e-08
2.7772294e-08
2.7772293e-08
2.7772295e-08
2.7772295e-08
2.7772295e-08
2.7772295e-08
2.7772295e-08
2.7772295e-08
2.7772295e-08
2.7772295e-08
2.7772294e-08
2.7772294e-08
2.7772293e-08
2.7772292e-08
2.7772295e-08
2.7772295e-08
2.7772295e-08
2.7772295e-08
2.7772295e-08
2.7772295e-08
2.7772295e-08
2.7772295e-08
2.7772294e-08
2.7772294e-08
2.7772293e-08
2.7772292e-08
2.7772288e-08
2.7772295e-08
2.7772295e-08
2.7772295e-08
2.7772295e-08
2.7772295e-08
2.7772295e-08
2.7772295e-08
2.7772295e-08
2.7772294e-08
2.7772294e-08
2.7772293e-08
2.7772292e-08
2.7772288e-08
2.7772274e-08
2.7772295e-08
2.7772295e-08
2.7772295e-08
2.7772295e-08
2.7772295e-08
2.7772295e-08
2.7772295e-08
2.7772295e-08
2.7772294e-08
2.7772294e-08
2.7772293e-08
2.7772292e-08
2.7772288e-08
2.7772274e-08
2.7772295e-08
2.7772295e-08
2.7772295e-08
2.7772295e-08
2.7772295e-08
2.7772295e-08
2.7772295e-08
2.7772295e-08
2.7772294e-08
2.7772294e-08
2.7772293e-08
2.7772292e-08
2.7772288e-08
2.7772273e-08
2.7772295e-08
2.7772295e-08
2.7772295e-08
2.7772295e-08
2.7772295e-08
2.7772295e-08
2.7772295e-08
2.7772295e-08
2.7772294e-08
2.7772294e-08
2.7772293e-08
2.7772292e-08
2.7772288e-08
2.7772273e-08
2.7772295e-08
2.7772295e-08
2.7772295e-08
2.7772295e-08
2.7772295e-08
2.7772295e-08
2.7772295e-08
2.7772295e-08
2.7772294e-08
2.7772294e-08
2.7772293e-08
2.7772292e-08
2.7772288e-08
2.7772273e-08
2.7772273e-08
2.7772288e-08
2.7772292e-08
2.7772293e-08
2.7772294e-08
2.7772294e-08
2.7772295e-08
2.7772295e-08
2.7772295e-08
2.7772295e-08
2.7772295e-08
2.7772295e-08
2.7772295e-08
2.7772295e-08
2.7772273e-08
2.7772288e-08
2.7772292e-08
2.7772293e-08
2.7772294e-08
2.7772294e-08
2.7772295e-08
2.7772295e-08
2.7772295e-08
2.7772295e-08
2.7772295e-08
2.7772295e-08
2.7772295e-08
2.7772295e-08
2.7772273e-08
2.7772288e-08
2.7772292e-08
2.7772293e-08
2.7772294e-08
2.7772294e-08
2.7772295e-08
2.7772295e-08
2.7772295e-08
2.7772295e-08
2.7772295e-08
2.7772295e-08
2.7772295e-08
2.7772295e-08
2.7772273e-08
2.7772288e-08
2.7772292e-08
2.7772293e-08
2.7772294e-08
2.7772294e-08
2.7772295e-08
2.7772295e-08
2.7772295e-08
2.7772295e-08
2.7772295e-08
2.7772295e-08
2.7772295e-08
2.7772295e-08
2.7772273e-08
2.7772288e-08
2.7772292e-08
2.7772293e-08
2.7772294e-08
2.7772294e-08
2.7772295e-08
2.7772295e-08
2.7772295e-08
2.7772295e-08
2.7772295e-08
2.7772295e-08
2.7772295e-08
2.7772295e-08
2.7772273e-08
2.7772288e-08
2.7772292e-08
2.7772293e-08
2.7772294e-08
2.7772294e-08
2.7772295e-08
2.7772295e-08
2.7772295e-08
2.7772295e-08
2.7772295e-08
2.7772295e-08
2.7772295e-08
2.7772295e-08
2.7772273e-08
2.7772288e-08
2.7772292e-08
2.7772293e-08
2.7772294e-08
2.7772294e-08
2.7772295e-08
2.7772295e-08
2.7772295e-08
2.7772295e-08
2.7772295e-08
2.7772295e-08
2.7772295e-08
2.7772295e-08
2.7772273e-08
2.7772288e-08
2.7772292e-08
2.7772293e-08
2.7772294e-08
2.7772294e-08
2.7772295e-08
2.7772295e-08
2.7772295e-08
2.7772295e-08
2.7772295e-08
2.7772295e-08
2.7772295e-08
2.7772273e-08
2.7772288e-08
2.7772292e-08
2.7772293e-08
2.7772294e-08
2.7772294e-08
2.7772295e-08
2.7772295e-08
2.7772295e-08
2.7772295e-08
2.7772295e-08
2.7772295e-08
2.7772273e-08
2.7772288e-08
2.7772292e-08
2.7772293e-08
2.7772294e-08
2.7772294e-08
2.7772295e-08
2.7772295e-08
2.7772295e-08
2.7772295e-08
2.7772295e-08
2.7772272e-08
2.7772288e-08
2.7772292e-08
2.7772293e-08
2.7772294e-08
2.7772294e-08
2.7772295e-08
2.7772295e-08
2.7772295e-08
2.7772295e-08
2.7772273e-08
2.7772288e-08
2.7772292e-08
2.7772293e-08
2.7772294e-08
2.7772294e-08
2.7772295e-08
2.7772295e-08
2.7772295e-08
2.7772272e-08
2.7772288e-08
2.7772292e-08
2.7772293e-08
2.7772294e-08
2.7772294e-08
2.7772295e-08
2.7772295e-08
2.7772272e-08
2.7772288e-08
2.7772292e-08
2.7772293e-08
2.7772294e-08
2.7772294e-08
2.7772295e-08
2.7772295e-08
2.7772294e-08
2.7772294e-08
2.7772293e-08
2.7772292e-08
2.7772288e-08
2.7772272e-08
2.7772293e-08
2.7772292e-08
2.7772288e-08
2.7772271e-08
2.777227e-08
2.557854e-08
2.1645693e-08
2.2304245e-08
2.1689024e-08
2.6984992e-08
2.6900223e-08
2.6936051e-08
2.6910378e-08
2.7320431e-08
2.7355872e-08
2.7333932e-08
2.7321903e-08
2.7724052e-08
2.7729595e-08
2.7725163e-08
2.7722977e-08
2.7769524e-08
2.7769864e-08
2.7769614e-08
2.776949e-08
2.7771847e-08
2.7771868e-08
2.7771841e-08
2.7771834e-08
2.7772034e-08
2.7772047e-08
2.7772044e-08
2.7772038e-08
2.7772098e-08
2.7772108e-08
2.777211e-08
2.7772107e-08
2.7772141e-08
2.7772147e-08
2.7772149e-08
2.7772148e-08
2.7772172e-08
2.7772176e-08
2.7772178e-08
2.7772178e-08
2.7772194e-08
2.7772198e-08
2.7772199e-08
2.7772199e-08
2.7772213e-08
2.7772214e-08
2.7772215e-08
2.7772215e-08
2.7772226e-08
2.7772227e-08
2.7772228e-08
2.7772228e-08
2.7772236e-08
2.7772237e-08
2.7772237e-08
2.7772238e-08
2.7772239e-08
2.7772239e-08
2.7772238e-08
2.7772238e-08
2.7772239e-08
2.7772238e-08
2.7772238e-08
2.7772229e-08
2.7772229e-08
2.7772229e-08
2.7772228e-08
2.7772228e-08
2.7772229e-08
2.7772217e-08
2.7772217e-08
2.7772216e-08
2.7772216e-08
2.7772216e-08
2.7772216e-08
2.7772201e-08
2.7772201e-08
2.77722e-08
2.77722e-08
2.77722e-08
2.777218e-08
2.7772179e-08
2.7772179e-08
2.7772178e-08
2.7772178e-08
2.777215e-08
2.777215e-08
2.7772149e-08
2.7772149e-08
2.7772108e-08
2.7772107e-08
2.7772107e-08
2.7772108e-08
2.7772043e-08
2.7772042e-08
2.7772044e-08
2.777188e-08
2.7771879e-08
2.7771881e-08
2.7770112e-08
2.7770151e-08
2.7729684e-08
2.7730738e-08
2.7387935e-08
)
;

boundaryField
{
    Side
    {
        type            empty;
    }
    Inlet
    {
        type            calculated;
        value           nonuniform List<scalar> 
28
(
2.7772295e-08
2.7772295e-08
2.7772295e-08
2.7772295e-08
2.7772295e-08
2.7772295e-08
2.7772295e-08
3.9592188e-07
3.9592188e-07
3.9592188e-07
3.9592188e-07
3.9592188e-07
3.9592188e-07
3.9592188e-07
3.9592188e-07
3.9592188e-07
3.9592188e-07
3.9592188e-07
3.9592188e-07
3.9592188e-07
3.9592188e-07
3.9592188e-07
3.9592188e-07
3.9592188e-07
3.9592188e-07
3.9592188e-07
3.9592188e-07
3.9592188e-07
)
;
    }
    Airfoil
    {
        type            compressible::alphatWallFunction;
        value           nonuniform List<scalar> 
60
(
3.0507681e-06
3.0764815e-06
3.0944545e-06
3.113151e-06
3.1310513e-06
3.1488859e-06
3.1655587e-06
3.1804988e-06
3.1926925e-06
3.2029406e-06
3.2172894e-06
3.2485535e-06
3.3135825e-06
3.406452e-06
1.4763603e-05
1.4744477e-05
1.4730366e-05
1.4719557e-05
1.4710043e-05
1.4701772e-05
1.4696382e-05
1.469779e-05
1.4708578e-05
1.4718559e-05
1.4706006e-05
1.465685e-05
1.4819848e-05
1.378719e-05
2.6947245e-06
2.7221712e-06
2.6559788e-06
2.6081607e-06
2.5589278e-06
2.5271513e-06
2.531062e-06
2.5620747e-06
2.5901671e-06
2.6022934e-06
2.602949e-06
2.6015867e-06
2.6026641e-06
2.6062917e-06
3.3749929e-06
3.1810385e-06
3.0058798e-06
2.8497166e-06
2.7382866e-06
2.6713037e-06
2.6350297e-06
2.616225e-06
2.6061336e-06
2.5983598e-06
2.5940419e-06
2.5943665e-06
2.5988335e-06
2.5996663e-06
1.4561946e-05
1.4581583e-05
1.4493396e-05
1.4400561e-05
)
;
    }
    Outlet
    {
        type            zeroGradient;
    }
    Flap
    {
        type            compressible::alphatWallFunction;
        value           nonuniform List<scalar> 
36
(
2.3675803e-06
2.2689123e-06
2.178441e-06
2.0943249e-06
2.015224e-06
2.4555894e-06
2.5078582e-06
2.5772238e-06
2.6536277e-06
2.7362072e-06
2.8263647e-06
2.9176424e-06
3.0070676e-06
3.0967389e-06
3.1866264e-06
3.2753061e-06
3.3574536e-06
3.4199753e-06
3.4689316e-06
3.4103914e-06
3.9336209e-06
5.2016108e-06
5.9289303e-06
6.1861979e-06
6.0149091e-06
5.6210742e-06
5.155463e-06
4.6339128e-06
4.2123521e-06
3.9045454e-06
3.7534191e-06
3.6483506e-06
3.5740556e-06
1.5990401e-05
1.6107761e-05
1.542815e-05
)
;
    }
    procBoundary2to1
    {
        type            processor;
        value           nonuniform List<scalar> 
73
(
2.7772295e-08
2.7772295e-08
2.7772295e-08
2.7772295e-08
2.7772295e-08
2.7772295e-08
2.7772295e-08
2.7772295e-08
2.7772294e-08
2.7772294e-08
2.7772293e-08
2.7772292e-08
2.7772288e-08
2.7772274e-08
2.6925673e-08
2.2262977e-08
2.7772295e-08
2.7772295e-08
2.7772295e-08
2.7772295e-08
2.7772295e-08
2.7772295e-08
2.7772295e-08
2.7772295e-08
2.7772295e-08
2.7772295e-08
2.7772295e-08
2.7772295e-08
2.7772294e-08
2.7772294e-08
2.7772294e-08
2.7772293e-08
2.7772293e-08
2.7772292e-08
2.7772292e-08
2.7772288e-08
2.7772288e-08
2.7772274e-08
2.7772274e-08
2.7772237e-08
2.1536422e-08
2.6890824e-08
2.7303394e-08
2.771986e-08
2.7769318e-08
2.7771817e-08
2.7772035e-08
2.7772103e-08
2.7772144e-08
2.7772175e-08
2.7772197e-08
2.7772214e-08
2.7772227e-08
2.7772237e-08
2.7772238e-08
2.7772228e-08
2.7772228e-08
2.7772216e-08
2.77722e-08
2.77722e-08
2.7772179e-08
2.7772149e-08
2.7772149e-08
2.7772107e-08
2.7772041e-08
2.7772041e-08
2.777188e-08
2.7770196e-08
2.7770196e-08
2.7731805e-08
2.7391876e-08
2.7391876e-08
2.6925673e-08
)
;
    }
    procBoundary2to3
    {
        type            processor;
        value           nonuniform List<scalar> 
113
(
2.7772295e-08
2.7772295e-08
2.8302265e-08
3.5672682e-08
2.8531268e-08
2.8178235e-08
2.7936006e-08
2.7203063e-08
2.7000994e-08
2.6185294e-08
2.5380153e-08
2.4327853e-08
2.3181675e-08
2.180736e-08
2.0779959e-08
1.9480782e-08
1.9480782e-08
2.5053314e-08
2.8263573e-08
2.779304e-08
2.779304e-08
3.5672682e-08
2.2660048e-08
2.0243318e-08
2.6995806e-08
2.5824175e-08
2.6964137e-08
2.495028e-08
2.3488706e-08
2.2969742e-08
2.3542816e-08
2.4422884e-08
2.4969548e-08
2.4970431e-08
2.3376743e-08
2.3376743e-08
2.836519e-08
2.777224e-08
2.7772275e-08
2.777223e-08
2.777223e-08
2.7772218e-08
2.7772218e-08
2.7772203e-08
2.7772203e-08
2.7772182e-08
2.7772153e-08
2.7772153e-08
2.7772112e-08
2.7772112e-08
2.7772047e-08
2.7772047e-08
2.7771868e-08
2.7771868e-08
2.7769827e-08
2.7769827e-08
2.7728388e-08
2.7728388e-08
2.740315e-08
2.740315e-08
2.7772295e-08
2.7772295e-08
2.7772295e-08
2.7772295e-08
2.7772295e-08
2.7772295e-08
2.7772295e-08
2.7772294e-08
2.7772294e-08
2.7772293e-08
2.7772293e-08
2.7772292e-08
2.7772288e-08
2.7772288e-08
2.7772275e-08
5.4081418e-08
2.8240294e-08
2.822649e-08
2.7777977e-08
2.7771934e-08
2.7771828e-08
2.7771953e-08
2.7772037e-08
2.7772093e-08
2.7772133e-08
2.7772162e-08
2.7772184e-08
2.7772201e-08
2.7772215e-08
2.7772295e-08
2.7772295e-08
2.7772295e-08
2.7772295e-08
2.7772295e-08
2.7772295e-08
2.7772295e-08
2.7772295e-08
2.7772295e-08
2.7772295e-08
2.7772295e-08
2.7772295e-08
2.7772295e-08
2.7772295e-08
2.7772295e-08
2.7772295e-08
2.7772294e-08
2.7772294e-08
2.7772294e-08
2.7772293e-08
2.7772292e-08
2.7772287e-08
2.7772287e-08
2.7772269e-08
)
;
    }
}


// ************************************************************************* //
