/*--------------------------------*- C++ -*----------------------------------*\
| =========                 |                                                 |
| \\      /  F ield         | OpenFOAM: The Open Source CFD Toolbox           |
|  \\    /   O peration     | Version:  2206                                  |
|   \\  /    A nd           | Website:  www.openfoam.com                      |
|    \\/     M anipulation  |                                                 |
\*---------------------------------------------------------------------------*/
FoamFile
{
    version     2.0;
    format      ascii;
    arch        "LSB;label=32;scalar=64";
    class       volScalarField;
    location    "0.02";
    object      nut;
}
// * * * * * * * * * * * * * * * * * * * * * * * * * * * * * * * * * * * * * //

dimensions      [0 2 -1 0 0 0 0];

internalField   nonuniform List<scalar> 
1396
(
2.7772322e-08
2.7772322e-08
2.7772322e-08
2.7772322e-08
2.7772322e-08
2.7772322e-08
2.7772322e-08
2.7772321e-08
2.7772321e-08
2.7772321e-08
2.777232e-08
2.7772319e-08
2.7772315e-08
2.77723e-08
2.7772322e-08
2.7772322e-08
2.7772322e-08
2.7772322e-08
2.7772322e-08
2.7772322e-08
2.7772322e-08
2.7772321e-08
2.7772321e-08
2.7772321e-08
2.777232e-08
2.7772319e-08
2.7772315e-08
2.77723e-08
2.7772322e-08
2.7772322e-08
2.7772322e-08
2.7772322e-08
2.7772322e-08
2.7772322e-08
2.7772322e-08
2.7772321e-08
2.7772321e-08
2.7772321e-08
2.777232e-08
2.7772319e-08
2.7772315e-08
2.77723e-08
2.7772322e-08
2.7772322e-08
2.7772322e-08
2.7772322e-08
2.7772322e-08
2.7772322e-08
2.7772322e-08
2.7772321e-08
2.7772321e-08
2.7772321e-08
2.777232e-08
2.7772319e-08
2.7772315e-08
2.77723e-08
2.7772322e-08
2.7772322e-08
2.7772322e-08
2.7772322e-08
2.7772322e-08
2.7772322e-08
2.7772322e-08
2.7772321e-08
2.7772321e-08
2.7772321e-08
2.777232e-08
2.7772319e-08
2.7772315e-08
2.77723e-08
2.7772322e-08
2.7772322e-08
2.7772322e-08
2.7772322e-08
2.7772322e-08
2.7772322e-08
2.7772322e-08
2.7772321e-08
2.7772321e-08
2.7772321e-08
2.777232e-08
2.7772319e-08
2.7772315e-08
2.77723e-08
2.7772322e-08
2.7772322e-08
2.7772322e-08
2.7772322e-08
2.7772322e-08
2.7772322e-08
2.7772322e-08
2.7772321e-08
2.7772321e-08
2.7772321e-08
2.777232e-08
2.7772319e-08
2.7772315e-08
2.77723e-08
1.46341e-09
7.4743382e-09
1.5818612e-08
1.7503419e-09
8.7696755e-09
1.633031e-08
1.8219955e-09
9.0244884e-09
1.6463712e-08
2.0906924e-09
1.0400457e-08
1.685812e-08
2.234414e-09
1.0843657e-08
1.694101e-08
2.5053614e-09
1.2217143e-08
1.7233292e-08
2.6787764e-09
1.2887496e-08
1.7076233e-08
2.9190495e-09
1.4321539e-08
1.7287247e-08
3.0939136e-09
1.5091228e-08
1.6827229e-08
3.3393471e-09
1.6655952e-08
1.6812097e-08
3.5947337e-09
1.7538429e-08
1.6259879e-08
4.021409e-09
1.919185e-08
1.6105946e-08
4.6009533e-09
2.0201315e-08
1.5473875e-08
5.5106114e-09
2.1742491e-08
1.5273184e-08
1.8975615e-08
3.2366676e-08
2.8024906e-08
1.6317592e-07
6.1029766e-09
9.2570256e-09
1.5397659e-08
3.3435729e-08
6.2153812e-08
6.3097372e-08
4.1053154e-08
3.1579371e-08
2.7905955e-08
2.6212207e-08
2.5105301e-08
2.6191258e-08
3.8189365e-08
2.4673529e-08
3.6488307e-09
1.3016728e-08
1.5829109e-08
3.3496717e-08
5.323025e-08
5.1845701e-08
3.6593034e-08
2.9612666e-08
2.7144045e-08
2.6115331e-08
2.546541e-08
2.619869e-08
3.7163142e-08
1.0820966e-08
5.9495439e-09
1.6677348e-08
1.7805393e-08
3.2143509e-08
4.1770954e-08
3.9153621e-08
3.1149244e-08
2.7637825e-08
2.6543439e-08
2.6134378e-08
2.5877214e-08
2.6080697e-08
3.6169969e-08
1.5857184e-08
1.2060479e-08
2.2666276e-08
2.2588495e-08
3.0305593e-08
3.1702438e-08
2.9444122e-08
2.6522599e-08
2.5873501e-08
2.6135474e-08
2.6398119e-08
2.6515352e-08
2.5685537e-08
3.3725831e-08
3.2103138e-08
2.7772266e-08
2.7772256e-08
2.7772244e-08
2.7772228e-08
2.7772207e-08
2.7772178e-08
2.7772135e-08
2.777207e-08
2.7771898e-08
2.7770041e-08
2.772913e-08
2.7395545e-08
2.7017144e-08
2.4315249e-08
2.7772266e-08
2.7772256e-08
2.7772244e-08
2.7772228e-08
2.7772207e-08
2.7772178e-08
2.7772136e-08
2.777207e-08
2.7771895e-08
2.7769991e-08
2.7728144e-08
2.7390937e-08
2.7007406e-08
2.4199075e-08
2.7772266e-08
2.7772257e-08
2.7772245e-08
2.7772229e-08
2.7772208e-08
2.7772178e-08
2.7772136e-08
2.7772071e-08
2.7771893e-08
2.7769951e-08
2.7727404e-08
2.7387018e-08
2.6999053e-08
2.4094022e-08
2.7772266e-08
2.7772256e-08
2.7772244e-08
2.7772228e-08
2.7772208e-08
2.7772179e-08
2.7772137e-08
2.7772071e-08
2.7771892e-08
2.776992e-08
2.7726738e-08
2.7383423e-08
2.6990903e-08
2.399067e-08
2.7772244e-08
2.7772229e-08
2.7772208e-08
2.777218e-08
2.7772137e-08
2.7772072e-08
2.7771892e-08
2.7769891e-08
2.7726117e-08
2.7380033e-08
2.6983705e-08
2.3893213e-08
2.7772228e-08
2.7772208e-08
2.7772179e-08
2.7772138e-08
2.7772072e-08
2.7771891e-08
2.776987e-08
2.7725625e-08
2.7377347e-08
2.6980083e-08
2.3816057e-08
2.7772207e-08
2.7772178e-08
2.7772137e-08
2.7772073e-08
2.7771892e-08
2.7769859e-08
2.7725328e-08
2.7376154e-08
2.6980799e-08
2.3766279e-08
2.7772137e-08
2.7772075e-08
2.7771892e-08
2.776986e-08
2.7725266e-08
2.7376516e-08
2.6980455e-08
2.3740753e-08
2.7772073e-08
2.7771894e-08
2.776986e-08
2.7725188e-08
2.7376159e-08
2.6973668e-08
2.3697411e-08
2.7771893e-08
2.7769839e-08
2.7724745e-08
2.7373018e-08
2.6960447e-08
2.3604907e-08
2.7769801e-08
2.7724103e-08
2.7369795e-08
2.6967339e-08
2.3510851e-08
2.7724524e-08
2.7378467e-08
2.7020675e-08
2.3551501e-08
2.738579e-08
2.6931197e-08
2.5281933e-08
2.7572635e-08
2.2924754e-08
2.7772322e-08
2.7772322e-08
2.7772322e-08
2.7772322e-08
2.7772322e-08
2.7772321e-08
2.7772321e-08
2.7772321e-08
2.777232e-08
2.7772319e-08
2.7772315e-08
2.7772301e-08
2.7772319e-08
2.7772315e-08
2.7772301e-08
2.7772302e-08
3.8583592e-08
4.0768921e-08
4.3718522e-08
4.6579852e-08
4.7305492e-08
4.8375744e-08
5.0377938e-08
5.1134637e-08
5.1256599e-08
5.1081922e-08
4.9581165e-08
4.6483812e-08
4.2071232e-08
3.7132513e-08
2.6301675e-08
2.6720359e-08
2.6735077e-08
2.6639702e-08
2.6185171e-08
2.5601675e-08
2.4903585e-08
2.4270404e-08
2.363639e-08
2.3067407e-08
2.2463633e-08
2.1974408e-08
2.1662379e-08
2.1502031e-08
2.489606e-08
2.4892536e-08
2.4728244e-08
2.4348269e-08
2.3833343e-08
2.3303855e-08
2.2838543e-08
2.2490739e-08
2.2238162e-08
2.2149012e-08
2.2331123e-08
2.2948649e-08
2.4266123e-08
2.6857115e-08
2.6473039e-08
2.6838342e-08
2.7417807e-08
2.811715e-08
2.9046791e-08
3.0366126e-08
3.203199e-08
3.4003036e-08
3.6344071e-08
3.9210793e-08
4.2864863e-08
4.76132e-08
5.377531e-08
6.1727009e-08
2.8830116e-08
2.9627748e-08
3.0897801e-08
3.2417539e-08
3.4360892e-08
3.6801042e-08
3.9689303e-08
4.2977454e-08
4.6760339e-08
5.1174355e-08
5.6318248e-08
6.2130632e-08
6.8288893e-08
7.4498093e-08
3.3001328e-08
3.322159e-08
3.4400792e-08
3.5622577e-08
3.7246138e-08
3.9145408e-08
4.121997e-08
4.3425691e-08
4.5835664e-08
4.8325307e-08
5.0670514e-08
5.2801744e-08
5.4314438e-08
5.4836107e-08
4.3057028e-08
4.029891e-08
4.0347028e-08
3.9871588e-08
3.9957072e-08
4.0312609e-08
4.0667655e-08
4.0935037e-08
4.1168963e-08
4.1281084e-08
4.1212008e-08
4.0934924e-08
4.0392381e-08
3.9505768e-08
6.594674e-08
6.4200426e-08
5.934595e-08
5.4528251e-08
5.0468463e-08
4.7844503e-08
4.578027e-08
4.3806775e-08
4.200592e-08
4.0343546e-08
3.8772507e-08
3.7260083e-08
3.5826562e-08
3.4447157e-08
6.7935464e-08
7.7167207e-08
7.5123292e-08
7.039097e-08
6.3463215e-08
5.6522018e-08
5.1615081e-08
4.8599021e-08
4.6174373e-08
4.3839083e-08
4.1486136e-08
3.9209098e-08
3.7137577e-08
3.5313458e-08
3.7884973e-08
5.4378496e-08
6.343504e-08
6.7722114e-08
6.4660429e-08
5.7682781e-08
5.2599448e-08
5.0115426e-08
4.8109462e-08
4.6156921e-08
4.3899823e-08
4.1403454e-08
3.8944396e-08
3.6678436e-08
1.8240316e-08
2.6228461e-08
3.0087045e-08
3.6817904e-08
4.1820992e-08
4.185682e-08
3.9691624e-08
3.8252384e-08
3.7917858e-08
3.8166996e-08
3.8256888e-08
3.777589e-08
3.6789291e-08
3.5591475e-08
1.015879e-08
1.0699865e-08
1.2399376e-08
1.5408852e-08
1.8664095e-08
2.1571743e-08
2.1662262e-08
2.1726148e-08
2.260851e-08
2.4111157e-08
2.5799268e-08
2.7478005e-08
2.8728092e-08
2.9537327e-08
2.224571e-08
1.2889221e-08
2.0836414e-08
1.9249331e-08
2.2521277e-08
2.6021209e-08
2.6705449e-08
2.5430759e-08
2.5233764e-08
2.5319528e-08
2.6110349e-08
2.7207679e-08
2.8188839e-08
2.8596564e-08
1.16722e-07
9.8394809e-08
9.8039751e-08
9.6363407e-08
8.5983331e-08
8.2308387e-08
7.6396788e-08
7.2441102e-08
6.8442773e-08
6.508105e-08
6.2405941e-08
6.0036366e-08
5.7907872e-08
5.5785292e-08
3.9387285e-08
2.5708296e-08
1.7186985e-07
1.3211053e-08
3.379084e-08
2.6858948e-08
2.7428632e-08
2.6082013e-08
2.3253156e-08
1.9933433e-08
1.833391e-08
1.8490987e-08
1.9295858e-08
2.1341845e-08
2.1631245e-08
3.3218064e-09
1.6102219e-07
1.478167e-08
3.5116346e-08
2.6716064e-08
2.7336068e-08
2.5746816e-08
2.2727272e-08
1.9372089e-08
1.7498939e-08
1.6253466e-08
1.7315611e-08
2.6382732e-08
5.1551121e-08
1.3707979e-08
1.3317135e-07
1.7538063e-08
3.6219334e-08
2.6689048e-08
2.7144486e-08
2.5274627e-08
2.2188093e-08
1.9348935e-08
1.8246798e-08
1.6624578e-08
1.948307e-08
4.2477928e-08
5.3908225e-08
3.3642507e-08
1.1411274e-07
2.1073742e-08
3.6628576e-08
2.6835365e-08
2.6959007e-08
2.4910683e-08
2.1844149e-08
1.9431729e-08
1.9060867e-08
1.7279239e-08
2.1269018e-08
5.3106389e-08
4.4433043e-08
5.349524e-08
9.9499948e-08
2.6308428e-08
3.7338121e-08
2.7105834e-08
2.6823601e-08
2.4695615e-08
2.1732874e-08
1.9621661e-08
1.997733e-08
1.7755545e-08
2.2370587e-08
5.6788274e-08
3.5092856e-08
5.1485737e-08
1.1767443e-07
3.3682895e-08
3.9021036e-08
2.7512141e-08
2.677e-08
2.4606078e-08
2.1810284e-08
1.9948133e-08
2.1060002e-08
1.8721534e-08
2.3266293e-08
5.7644832e-08
2.595547e-08
5.8477972e-08
1.0899624e-07
4.319633e-08
4.2862578e-08
2.8114478e-08
2.6865702e-08
2.4663021e-08
2.2116694e-08
2.0398307e-08
2.2289328e-08
2.0373533e-08
2.4471393e-08
5.6976775e-08
1.8986856e-08
5.6564344e-08
9.8095659e-08
5.6470723e-08
4.915053e-08
2.9114749e-08
2.7216354e-08
2.4937084e-08
2.2690867e-08
2.1022605e-08
2.3582662e-08
2.2524574e-08
2.5871815e-08
5.5570203e-08
1.4897979e-08
4.9778089e-08
8.8223767e-08
7.1974613e-08
5.6558069e-08
3.0993357e-08
2.7932679e-08
2.5455499e-08
2.351934e-08
2.1995811e-08
2.5007638e-08
2.5056848e-08
2.7169803e-08
5.3856872e-08
1.3745976e-08
4.4093936e-08
8.0117659e-08
8.546196e-08
6.6130169e-08
3.4359196e-08
2.9048318e-08
2.6240216e-08
2.466275e-08
2.336129e-08
2.6703982e-08
2.7269837e-08
2.8173286e-08
5.260739e-08
1.4573455e-08
3.6015231e-08
6.9047467e-08
9.4048765e-08
7.5300917e-08
3.9213404e-08
3.078499e-08
2.7333313e-08
2.6185359e-08
2.5120446e-08
2.8539132e-08
2.9267121e-08
2.8522547e-08
5.1774246e-08
1.8798213e-08
2.9369799e-08
5.5262738e-08
9.489618e-08
8.2079007e-08
4.4601195e-08
3.3313082e-08
2.8787784e-08
2.8057394e-08
2.7447017e-08
3.0282276e-08
3.0563283e-08
2.8646219e-08
5.1495773e-08
2.4219423e-08
2.4593303e-08
4.2264785e-08
8.6324539e-08
8.4641127e-08
5.0461625e-08
3.5522699e-08
3.0535346e-08
3.0377631e-08
3.0433343e-08
3.1721446e-08
3.0963849e-08
2.8806013e-08
5.20716e-08
3.1103804e-08
2.220669e-08
3.2339276e-08
7.3764286e-08
8.1374544e-08
5.411605e-08
3.7935949e-08
3.2633478e-08
3.2987755e-08
3.3542964e-08
3.3460285e-08
2.9870809e-08
2.8394745e-08
5.2846372e-08
5.7649564e-08
7.1889354e-08
1.762757e-08
3.8344757e-08
2.5638115e-08
2.8277368e-08
2.7756431e-08
2.7917608e-08
2.7728528e-08
2.6972846e-08
2.5706861e-08
2.4790315e-08
2.4482961e-08
2.4489401e-08
3.0895896e-08
2.7474632e-08
2.9655207e-08
2.7131806e-08
2.7983459e-08
2.7714569e-08
2.7761126e-08
2.7730297e-08
2.7704787e-08
2.7685494e-08
2.7664045e-08
2.7544156e-08
2.7212654e-08
2.6905264e-08
2.7806528e-08
2.7920162e-08
2.7713707e-08
2.7805369e-08
2.776012e-08
2.7773859e-08
2.7770979e-08
2.7772157e-08
2.7768606e-08
2.7755039e-08
2.7727637e-08
2.7677558e-08
2.7595085e-08
2.7491711e-08
2.777166e-08
2.7769991e-08
2.777367e-08
2.7770317e-08
2.7771762e-08
2.7771199e-08
2.7771336e-08
2.7771232e-08
2.7771163e-08
2.7771145e-08
2.777082e-08
2.7769149e-08
2.7764293e-08
2.7753037e-08
2.777187e-08
2.7771703e-08
2.7771706e-08
2.7771749e-08
2.7771703e-08
2.7771722e-08
2.777172e-08
2.7771727e-08
2.7771722e-08
2.7771688e-08
2.7771609e-08
2.7771487e-08
2.7771326e-08
2.7771022e-08
2.7771931e-08
2.7771924e-08
2.7771922e-08
2.7771919e-08
2.7771919e-08
2.7771916e-08
2.7771918e-08
2.7771921e-08
2.7771925e-08
2.7771931e-08
2.7771936e-08
2.7771938e-08
2.7771933e-08
2.7771924e-08
2.7772041e-08
2.7772035e-08
2.7772036e-08
2.7772035e-08
2.7772036e-08
2.7772033e-08
2.7772034e-08
2.7772035e-08
2.7772037e-08
2.777204e-08
2.7772044e-08
2.7772049e-08
2.7772054e-08
2.7772059e-08
2.7772111e-08
2.7772107e-08
2.7772107e-08
2.7772107e-08
2.7772107e-08
2.7772108e-08
2.7772107e-08
2.7772108e-08
2.7772109e-08
2.7772111e-08
2.7772113e-08
2.7772116e-08
2.7772119e-08
2.7772122e-08
2.7772157e-08
2.7772155e-08
2.7772155e-08
2.7772155e-08
2.7772155e-08
2.7772156e-08
2.7772157e-08
2.7772157e-08
2.7772158e-08
2.7772159e-08
2.777216e-08
2.7772162e-08
2.7772164e-08
2.7772166e-08
2.777219e-08
2.7772188e-08
2.7772189e-08
2.7772189e-08
2.7772189e-08
2.777219e-08
2.7772191e-08
2.7772191e-08
2.7772192e-08
2.7772192e-08
2.7772193e-08
2.7772194e-08
2.7772196e-08
2.7772197e-08
2.7772214e-08
2.7772213e-08
2.7772213e-08
2.7772213e-08
2.7772214e-08
2.7772214e-08
2.7772215e-08
2.7772215e-08
2.7772216e-08
2.7772217e-08
2.7772218e-08
2.7772219e-08
2.777222e-08
2.7772221e-08
2.7772232e-08
2.7772231e-08
2.7772232e-08
2.7772232e-08
2.7772232e-08
2.7772233e-08
2.7772233e-08
2.7772234e-08
2.7772234e-08
2.7772235e-08
2.7772236e-08
2.7772237e-08
2.7772237e-08
2.7772238e-08
2.7772246e-08
2.7772246e-08
2.7772246e-08
2.7772246e-08
2.7772246e-08
2.7772247e-08
2.7772247e-08
2.7772248e-08
2.7772248e-08
2.7772249e-08
2.7772249e-08
2.777225e-08
2.7772251e-08
2.7772252e-08
2.7772256e-08
2.7772257e-08
2.7772257e-08
2.7772257e-08
2.7772257e-08
2.7772258e-08
2.7772258e-08
2.7772259e-08
2.7772259e-08
2.777226e-08
2.777226e-08
2.7772261e-08
2.7772261e-08
2.7772262e-08
4.8770686e-08
2.8141168e-08
2.8163641e-08
2.7777247e-08
2.7771952e-08
2.777188e-08
2.7771999e-08
2.7772078e-08
2.7772131e-08
2.7772169e-08
2.7772196e-08
2.7772217e-08
2.7772233e-08
2.7772246e-08
4.7372407e-08
2.8177951e-08
2.8126866e-08
2.7778275e-08
2.7771854e-08
2.7771903e-08
2.7772017e-08
2.7772091e-08
2.7772142e-08
2.7772178e-08
2.7772204e-08
2.7772223e-08
2.7772238e-08
2.777225e-08
4.4176203e-08
2.9336801e-08
2.7972393e-08
2.777845e-08
2.7771767e-08
2.7771919e-08
2.7772032e-08
2.7772103e-08
2.7772151e-08
2.7772185e-08
2.777221e-08
2.7772229e-08
2.7772243e-08
2.7772254e-08
2.7772322e-08
2.7772322e-08
2.7772322e-08
2.7772322e-08
2.7772322e-08
2.7772322e-08
2.7772322e-08
2.7772322e-08
2.7772322e-08
2.7772322e-08
2.7772322e-08
2.7772322e-08
2.7772322e-08
2.7772322e-08
2.7772322e-08
2.7772322e-08
2.7772322e-08
2.7772322e-08
2.7772322e-08
2.7772322e-08
2.7772322e-08
2.7772322e-08
2.7772322e-08
2.7772322e-08
2.7772322e-08
2.7772321e-08
2.7772322e-08
2.7772322e-08
2.7772322e-08
2.7772322e-08
2.7772322e-08
2.7772322e-08
2.7772322e-08
2.7772321e-08
2.7772321e-08
2.7772321e-08
2.7772322e-08
2.7772322e-08
2.7772322e-08
2.7772322e-08
2.7772322e-08
2.7772322e-08
2.7772322e-08
2.7772321e-08
2.7772321e-08
2.7772321e-08
2.777232e-08
2.7772322e-08
2.7772322e-08
2.7772322e-08
2.7772322e-08
2.7772322e-08
2.7772322e-08
2.7772322e-08
2.7772321e-08
2.7772321e-08
2.7772321e-08
2.777232e-08
2.7772319e-08
2.7772322e-08
2.7772322e-08
2.7772322e-08
2.7772322e-08
2.7772322e-08
2.7772322e-08
2.7772322e-08
2.7772321e-08
2.7772321e-08
2.7772321e-08
2.777232e-08
2.7772319e-08
2.7772315e-08
2.7772322e-08
2.7772322e-08
2.7772322e-08
2.7772322e-08
2.7772322e-08
2.7772322e-08
2.7772322e-08
2.7772321e-08
2.7772321e-08
2.7772321e-08
2.777232e-08
2.7772319e-08
2.7772315e-08
2.77723e-08
2.7772322e-08
2.7772322e-08
2.7772322e-08
2.7772322e-08
2.7772322e-08
2.7772322e-08
2.7772322e-08
2.7772321e-08
2.7772321e-08
2.7772321e-08
2.777232e-08
2.7772319e-08
2.7772315e-08
2.77723e-08
2.7772322e-08
2.7772322e-08
2.7772322e-08
2.7772322e-08
2.7772322e-08
2.7772322e-08
2.7772322e-08
2.7772321e-08
2.7772321e-08
2.7772321e-08
2.777232e-08
2.7772318e-08
2.7772315e-08
2.77723e-08
2.7772322e-08
2.7772322e-08
2.7772322e-08
2.7772322e-08
2.7772322e-08
2.7772322e-08
2.7772322e-08
2.7772321e-08
2.7772321e-08
2.7772321e-08
2.777232e-08
2.7772318e-08
2.7772315e-08
2.77723e-08
2.7772322e-08
2.7772322e-08
2.7772322e-08
2.7772322e-08
2.7772322e-08
2.7772322e-08
2.7772322e-08
2.7772321e-08
2.7772321e-08
2.7772321e-08
2.777232e-08
2.7772318e-08
2.7772315e-08
2.77723e-08
2.77723e-08
2.7772315e-08
2.7772318e-08
2.777232e-08
2.7772321e-08
2.7772321e-08
2.7772321e-08
2.7772322e-08
2.7772322e-08
2.7772322e-08
2.7772322e-08
2.7772322e-08
2.7772322e-08
2.7772322e-08
2.77723e-08
2.7772315e-08
2.7772318e-08
2.777232e-08
2.7772321e-08
2.7772321e-08
2.7772321e-08
2.7772322e-08
2.7772322e-08
2.7772322e-08
2.7772322e-08
2.7772322e-08
2.7772322e-08
2.7772322e-08
2.77723e-08
2.7772315e-08
2.7772318e-08
2.777232e-08
2.7772321e-08
2.7772321e-08
2.7772321e-08
2.7772322e-08
2.7772322e-08
2.7772322e-08
2.7772322e-08
2.7772322e-08
2.7772322e-08
2.7772322e-08
2.77723e-08
2.7772315e-08
2.7772318e-08
2.777232e-08
2.7772321e-08
2.7772321e-08
2.7772321e-08
2.7772322e-08
2.7772322e-08
2.7772322e-08
2.7772322e-08
2.7772322e-08
2.7772322e-08
2.7772322e-08
2.7772299e-08
2.7772315e-08
2.7772318e-08
2.777232e-08
2.7772321e-08
2.7772321e-08
2.7772321e-08
2.7772322e-08
2.7772322e-08
2.7772322e-08
2.7772322e-08
2.7772322e-08
2.7772322e-08
2.7772322e-08
2.7772299e-08
2.7772315e-08
2.7772318e-08
2.777232e-08
2.7772321e-08
2.7772321e-08
2.7772321e-08
2.7772321e-08
2.7772322e-08
2.7772322e-08
2.7772322e-08
2.7772322e-08
2.7772322e-08
2.7772322e-08
2.7772299e-08
2.7772315e-08
2.7772318e-08
2.777232e-08
2.7772321e-08
2.7772321e-08
2.7772321e-08
2.7772321e-08
2.7772322e-08
2.7772322e-08
2.7772322e-08
2.7772322e-08
2.7772322e-08
2.7772322e-08
2.7772299e-08
2.7772315e-08
2.7772318e-08
2.777232e-08
2.7772321e-08
2.7772321e-08
2.7772321e-08
2.7772321e-08
2.7772322e-08
2.7772322e-08
2.7772322e-08
2.7772322e-08
2.7772322e-08
2.7772299e-08
2.7772315e-08
2.7772318e-08
2.777232e-08
2.7772321e-08
2.7772321e-08
2.7772321e-08
2.7772321e-08
2.7772322e-08
2.7772322e-08
2.7772322e-08
2.7772322e-08
2.7772299e-08
2.7772315e-08
2.7772318e-08
2.777232e-08
2.7772321e-08
2.7772321e-08
2.7772321e-08
2.7772321e-08
2.7772322e-08
2.7772322e-08
2.7772322e-08
2.7772299e-08
2.7772315e-08
2.7772318e-08
2.777232e-08
2.7772321e-08
2.7772321e-08
2.7772321e-08
2.7772321e-08
2.7772322e-08
2.7772322e-08
2.7772299e-08
2.7772315e-08
2.7772318e-08
2.777232e-08
2.7772321e-08
2.7772321e-08
2.7772321e-08
2.7772321e-08
2.7772322e-08
2.7772299e-08
2.7772315e-08
2.7772318e-08
2.777232e-08
2.7772321e-08
2.7772321e-08
2.7772321e-08
2.7772321e-08
2.7772299e-08
2.7772315e-08
2.7772318e-08
2.777232e-08
2.7772321e-08
2.7772321e-08
2.7772321e-08
2.7772321e-08
2.7772321e-08
2.7772321e-08
2.777232e-08
2.7772318e-08
2.7772314e-08
2.7772298e-08
2.777232e-08
2.7772318e-08
2.7772314e-08
2.7772298e-08
2.7772297e-08
2.7967267e-08
2.3723971e-08
2.456383e-08
2.3939555e-08
2.7105836e-08
2.6981846e-08
2.7025429e-08
2.7002421e-08
2.7339675e-08
2.7371056e-08
2.7350155e-08
2.7338668e-08
2.7725272e-08
2.7730631e-08
2.7726308e-08
2.7724184e-08
2.7769581e-08
2.7769911e-08
2.7769665e-08
2.7769542e-08
2.7771875e-08
2.7771895e-08
2.7771868e-08
2.7771861e-08
2.7772061e-08
2.7772073e-08
2.777207e-08
2.7772064e-08
2.7772125e-08
2.7772134e-08
2.7772136e-08
2.7772133e-08
2.7772168e-08
2.7772174e-08
2.7772176e-08
2.7772175e-08
2.7772199e-08
2.7772203e-08
2.7772205e-08
2.7772205e-08
2.7772221e-08
2.7772224e-08
2.7772225e-08
2.7772226e-08
2.7772239e-08
2.7772241e-08
2.7772241e-08
2.7772242e-08
2.7772252e-08
2.7772254e-08
2.7772254e-08
2.7772255e-08
2.7772263e-08
2.7772263e-08
2.7772264e-08
2.7772264e-08
2.7772266e-08
2.7772265e-08
2.7772265e-08
2.7772265e-08
2.7772265e-08
2.7772265e-08
2.7772265e-08
2.7772256e-08
2.7772256e-08
2.7772255e-08
2.7772255e-08
2.7772255e-08
2.7772255e-08
2.7772244e-08
2.7772243e-08
2.7772243e-08
2.7772243e-08
2.7772243e-08
2.7772243e-08
2.7772228e-08
2.7772227e-08
2.7772227e-08
2.7772226e-08
2.7772226e-08
2.7772207e-08
2.7772206e-08
2.7772205e-08
2.7772205e-08
2.7772205e-08
2.7772177e-08
2.7772176e-08
2.7772176e-08
2.7772176e-08
2.7772135e-08
2.7772134e-08
2.7772134e-08
2.7772135e-08
2.777207e-08
2.7772069e-08
2.7772071e-08
2.7771907e-08
2.7771906e-08
2.7771908e-08
2.7770152e-08
2.7770192e-08
2.7730747e-08
2.7731782e-08
2.7400601e-08
)
;

boundaryField
{
    Side
    {
        type            empty;
    }
    Inlet
    {
        type            inletOutlet;
        inletValue      uniform 3.9592226e-07;
        value           nonuniform List<scalar> 
28
(
2.7772322e-08
2.7772322e-08
2.7772322e-08
2.7772322e-08
2.7772322e-08
2.7772322e-08
2.7772322e-08
3.9592226e-07
3.9592226e-07
3.9592226e-07
3.9592226e-07
3.9592226e-07
3.9592226e-07
3.9592226e-07
3.9592226e-07
3.9592226e-07
3.9592226e-07
3.9592226e-07
3.9592226e-07
3.9592226e-07
3.9592226e-07
3.9592226e-07
3.9592226e-07
3.9592226e-07
3.9592226e-07
3.9592226e-07
3.9592226e-07
3.9592226e-07
)
;
    }
    Airfoil
    {
        type            nutUSpaldingWallFunction;
        value           nonuniform List<scalar> 
60
(
5.5351761e-06
5.5698883e-06
5.5964681e-06
5.622925e-06
5.648874e-06
5.6742718e-06
5.7000282e-06
5.7286353e-06
5.7625082e-06
5.8004397e-06
5.8327261e-06
5.8372878e-06
5.7772492e-06
5.6375385e-06
1.4501341e-05
1.4506413e-05
1.4514539e-05
1.4525308e-05
1.4535835e-05
1.4543135e-05
1.4547405e-05
1.4553265e-05
1.4572676e-05
1.460336e-05
1.4608627e-05
1.4531341e-05
1.4565486e-05
1.3788261e-05
2.3146065e-06
2.1072561e-06
1.9518776e-06
1.857838e-06
1.7941497e-06
1.7798699e-06
1.8271493e-06
1.8980028e-06
1.9501721e-06
1.9767415e-06
1.9903548e-06
2.0048396e-06
2.0255547e-06
2.0511793e-06
3.6690873e-06
3.4973957e-06
3.2214991e-06
2.9643283e-06
2.7663309e-06
2.6198206e-06
2.5082798e-06
2.4189732e-06
2.3436764e-06
2.2765225e-06
2.216554e-06
2.1659808e-06
2.1241663e-06
2.0820505e-06
1.4078889e-05
1.427517e-05
1.4287638e-05
1.4247886e-05
)
;
    }
    Outlet
    {
        type            zeroGradient;
    }
    Flap
    {
        type            nutUSpaldingWallFunction;
        value           nonuniform List<scalar> 
36
(
2.0952606e-06
2.032471e-06
1.9750493e-06
1.9229235e-06
1.8744877e-06
2.1494024e-06
2.1721048e-06
2.2036277e-06
2.245488e-06
2.3016193e-06
2.3638592e-06
2.4216384e-06
2.474077e-06
2.5253755e-06
2.5758083e-06
2.621801e-06
2.6606092e-06
2.6896832e-06
2.707272e-06
1.2829684e-06
1.7698957e-06
2.3327105e-06
2.793786e-06
3.080682e-06
3.1926113e-06
3.205154e-06
3.1577428e-06
3.0314829e-06
2.8993805e-06
2.8038895e-06
2.776299e-06
2.7679887e-06
2.7546731e-06
1.2125872e-05
1.2291881e-05
1.1839041e-05
)
;
    }
    procBoundary2to1
    {
        type            processor;
        value           nonuniform List<scalar> 
73
(
2.7772322e-08
2.7772322e-08
2.7772322e-08
2.7772322e-08
2.7772322e-08
2.7772322e-08
2.7772322e-08
2.7772321e-08
2.7772321e-08
2.7772321e-08
2.777232e-08
2.7772318e-08
2.7772315e-08
2.77723e-08
2.7021032e-08
2.4468309e-08
2.7772322e-08
2.7772322e-08
2.7772322e-08
2.7772322e-08
2.7772322e-08
2.7772322e-08
2.7772322e-08
2.7772322e-08
2.7772322e-08
2.7772322e-08
2.7772321e-08
2.7772321e-08
2.7772321e-08
2.7772321e-08
2.7772321e-08
2.777232e-08
2.777232e-08
2.7772319e-08
2.7772319e-08
2.7772315e-08
2.7772315e-08
2.77723e-08
2.77723e-08
2.7772264e-08
2.383876e-08
2.6987849e-08
2.7320951e-08
2.7721154e-08
2.7769372e-08
2.7771844e-08
2.7772061e-08
2.7772129e-08
2.7772171e-08
2.7772201e-08
2.7772224e-08
2.7772241e-08
2.7772254e-08
2.7772264e-08
2.7772265e-08
2.7772255e-08
2.7772255e-08
2.7772242e-08
2.7772227e-08
2.7772227e-08
2.7772205e-08
2.7772176e-08
2.7772176e-08
2.7772133e-08
2.7772068e-08
2.7772068e-08
2.7771907e-08
2.7770236e-08
2.7770236e-08
2.7732821e-08
2.740447e-08
2.740447e-08
2.7021032e-08
)
;
    }
    procBoundary2to3
    {
        type            processor;
        value           nonuniform List<scalar> 
113
(
2.7772322e-08
2.7772322e-08
2.8722707e-08
3.5092267e-08
2.8841851e-08
2.8448203e-08
2.8155349e-08
2.7400835e-08
2.7205698e-08
2.6414577e-08
2.5647582e-08
2.4633667e-08
2.3521434e-08
2.2172278e-08
2.116928e-08
1.9880179e-08
1.9880179e-08
2.5428135e-08
2.8198383e-08
2.777461e-08
2.777461e-08
3.5092267e-08
2.302533e-08
2.0592465e-08
2.7376008e-08
2.6081201e-08
2.7185258e-08
2.5180205e-08
2.387377e-08
2.3666618e-08
2.4662218e-08
2.5977711e-08
2.6811977e-08
2.7030107e-08
2.5079163e-08
2.5079163e-08
3.0730876e-08
2.7772266e-08
2.7772302e-08
2.7772257e-08
2.7772257e-08
2.7772245e-08
2.7772245e-08
2.7772229e-08
2.7772229e-08
2.7772208e-08
2.7772179e-08
2.7772179e-08
2.7772138e-08
2.7772138e-08
2.7772074e-08
2.7772074e-08
2.7771895e-08
2.7771895e-08
2.7769868e-08
2.7769868e-08
2.7729412e-08
2.7729412e-08
2.7414937e-08
2.7414937e-08
2.7772322e-08
2.7772322e-08
2.7772322e-08
2.7772322e-08
2.7772322e-08
2.7772322e-08
2.7772321e-08
2.7772321e-08
2.7772321e-08
2.777232e-08
2.777232e-08
2.7772319e-08
2.7772315e-08
2.7772315e-08
2.7772302e-08
4.9824499e-08
2.8180885e-08
2.8208304e-08
2.7777854e-08
2.7771954e-08
2.7771855e-08
2.777198e-08
2.7772063e-08
2.777212e-08
2.777216e-08
2.7772189e-08
2.7772211e-08
2.7772228e-08
2.7772242e-08
2.7772322e-08
2.7772322e-08
2.7772322e-08
2.7772322e-08
2.7772322e-08
2.7772322e-08
2.7772322e-08
2.7772322e-08
2.7772322e-08
2.7772322e-08
2.7772322e-08
2.7772322e-08
2.7772321e-08
2.7772322e-08
2.7772321e-08
2.7772321e-08
2.7772321e-08
2.7772321e-08
2.7772321e-08
2.777232e-08
2.7772318e-08
2.7772314e-08
2.7772314e-08
2.7772295e-08
)
;
    }
}


// ************************************************************************* //
