/*--------------------------------*- C++ -*----------------------------------*\
| =========                 |                                                 |
| \\      /  F ield         | OpenFOAM: The Open Source CFD Toolbox           |
|  \\    /   O peration     | Version:  2206                                  |
|   \\  /    A nd           | Website:  www.openfoam.com                      |
|    \\/     M anipulation  |                                                 |
\*---------------------------------------------------------------------------*/
FoamFile
{
    version     2.0;
    format      ascii;
    arch        "LSB;label=32;scalar=64";
    class       volScalarField;
    location    "0.02";
    object      nuTilda;
}
// * * * * * * * * * * * * * * * * * * * * * * * * * * * * * * * * * * * * * //

dimensions      [0 2 -1 0 0 0 0];

internalField   nonuniform List<scalar> 
1396
(
3.9592226e-07
3.9592226e-07
3.9592226e-07
3.9592226e-07
3.9592226e-07
3.9592226e-07
3.9592226e-07
3.9592226e-07
3.9592226e-07
3.9592225e-07
3.9592225e-07
3.9592225e-07
3.9592223e-07
3.9592218e-07
3.9592226e-07
3.9592226e-07
3.9592226e-07
3.9592226e-07
3.9592226e-07
3.9592226e-07
3.9592226e-07
3.9592226e-07
3.9592226e-07
3.9592225e-07
3.9592225e-07
3.9592225e-07
3.9592223e-07
3.9592218e-07
3.9592226e-07
3.9592226e-07
3.9592226e-07
3.9592226e-07
3.9592226e-07
3.9592226e-07
3.9592226e-07
3.9592226e-07
3.9592226e-07
3.9592225e-07
3.9592225e-07
3.9592225e-07
3.9592223e-07
3.9592218e-07
3.9592226e-07
3.9592226e-07
3.9592226e-07
3.9592226e-07
3.9592226e-07
3.9592226e-07
3.9592226e-07
3.9592226e-07
3.9592226e-07
3.9592225e-07
3.9592225e-07
3.9592225e-07
3.9592223e-07
3.9592218e-07
3.9592226e-07
3.9592226e-07
3.9592226e-07
3.9592226e-07
3.9592226e-07
3.9592226e-07
3.9592226e-07
3.9592226e-07
3.9592226e-07
3.9592225e-07
3.9592225e-07
3.9592225e-07
3.9592223e-07
3.9592218e-07
3.9592226e-07
3.9592226e-07
3.9592226e-07
3.9592226e-07
3.9592226e-07
3.9592226e-07
3.9592226e-07
3.9592226e-07
3.9592226e-07
3.9592225e-07
3.9592225e-07
3.9592225e-07
3.9592223e-07
3.9592218e-07
3.9592226e-07
3.9592226e-07
3.9592226e-07
3.9592226e-07
3.9592226e-07
3.9592226e-07
3.9592226e-07
3.9592226e-07
3.9592226e-07
3.9592225e-07
3.9592225e-07
3.9592225e-07
3.9592223e-07
3.9592218e-07
3.6212674e-07
3.3330918e-07
3.5758431e-07
3.7471935e-07
3.4147052e-07
3.5714205e-07
3.7847655e-07
3.395442e-07
3.554839e-07
3.8990104e-07
3.470075e-07
3.5482044e-07
3.9576934e-07
3.4576229e-07
3.527709e-07
4.0595055e-07
3.5143413e-07
3.5213952e-07
4.1194605e-07
3.514372e-07
3.4951266e-07
4.2036778e-07
3.5638292e-07
3.4926909e-07
4.2669119e-07
3.5664369e-07
3.4595242e-07
4.3553371e-07
3.6129901e-07
3.4545875e-07
4.4377363e-07
3.6170251e-07
3.4251515e-07
4.5367404e-07
3.6594596e-07
3.4212987e-07
4.6256305e-07
3.6690801e-07
3.3946293e-07
4.7169896e-07
3.7064974e-07
3.3949742e-07
3.6787205e-07
4.0365188e-07
3.9531507e-07
5.8282423e-07
2.6707503e-07
2.790733e-07
3.2123435e-07
4.0518704e-07
4.9050227e-07
4.9567549e-07
4.4127027e-07
4.1247636e-07
4.0125874e-07
3.9694115e-07
3.943925e-07
3.9938595e-07
4.4390719e-07
3.8768843e-07
2.4973608e-07
3.219773e-07
3.3971378e-07
4.1712241e-07
4.749116e-07
4.7109794e-07
4.2862378e-07
4.0682677e-07
4.0033467e-07
3.9895971e-07
3.9853756e-07
4.0125895e-07
4.4159364e-07
3.1789407e-07
2.7769893e-07
3.5402522e-07
3.6065181e-07
4.1969718e-07
4.4705133e-07
4.3714095e-07
4.1140529e-07
4.0121882e-07
4.004669e-07
4.0192632e-07
4.0337963e-07
4.0279618e-07
4.3931122e-07
3.5203023e-07
3.2880995e-07
3.8572337e-07
3.8419293e-07
4.1232376e-07
4.1381867e-07
4.044956e-07
3.9499782e-07
3.9619258e-07
4.0153238e-07
4.0607403e-07
4.0940286e-07
4.0325179e-07
4.3284006e-07
4.2943245e-07
3.9592205e-07
3.9592201e-07
3.9592197e-07
3.9592191e-07
3.9592183e-07
3.9592172e-07
3.9592156e-07
3.9592131e-07
3.9592065e-07
3.9591317e-07
3.9575313e-07
3.9440274e-07
3.9212716e-07
3.9873222e-07
3.9592205e-07
3.9592201e-07
3.9592197e-07
3.9592191e-07
3.9592183e-07
3.9592172e-07
3.9592156e-07
3.9592131e-07
3.9592064e-07
3.9591295e-07
3.9574909e-07
3.9438136e-07
3.9206073e-07
3.9839004e-07
3.9592205e-07
3.9592201e-07
3.9592197e-07
3.9592191e-07
3.9592183e-07
3.9592172e-07
3.9592156e-07
3.9592131e-07
3.9592063e-07
3.9591278e-07
3.9574608e-07
3.9436327e-07
3.9200339e-07
3.9809085e-07
3.9592205e-07
3.9592201e-07
3.9592197e-07
3.9592191e-07
3.9592183e-07
3.9592172e-07
3.9592156e-07
3.9592132e-07
3.9592063e-07
3.9591265e-07
3.9574341e-07
3.9434699e-07
3.9194972e-07
3.9780969e-07
3.9592197e-07
3.9592191e-07
3.9592183e-07
3.9592172e-07
3.9592156e-07
3.9592132e-07
3.9592062e-07
3.9591253e-07
3.9574094e-07
3.9433193e-07
3.9190126e-07
3.9754595e-07
3.9592191e-07
3.9592183e-07
3.9592172e-07
3.9592157e-07
3.9592132e-07
3.9592062e-07
3.9591245e-07
3.9573897e-07
3.9432029e-07
3.9186816e-07
3.973125e-07
3.9592183e-07
3.9592172e-07
3.9592157e-07
3.9592132e-07
3.9592062e-07
3.959124e-07
3.9573778e-07
3.9431512e-07
3.9185517e-07
3.9713267e-07
3.9592156e-07
3.9592133e-07
3.9592062e-07
3.959124e-07
3.957375e-07
3.9431602e-07
3.9184177e-07
3.9698792e-07
3.9592132e-07
3.9592063e-07
3.9591239e-07
3.9573715e-07
3.9431309e-07
3.9180758e-07
3.968457e-07
3.9592063e-07
3.9591231e-07
3.9573539e-07
3.9429888e-07
3.9174965e-07
3.9670857e-07
3.9591216e-07
3.9573297e-07
3.9428613e-07
3.9176309e-07
3.966068e-07
3.9573469e-07
3.9432468e-07
3.9193441e-07
3.9638533e-07
3.943555e-07
3.916499e-07
4.0166328e-07
3.940819e-07
4.0197379e-07
3.9592226e-07
3.9592226e-07
3.9592226e-07
3.9592226e-07
3.9592226e-07
3.9592226e-07
3.9592226e-07
3.9592225e-07
3.9592225e-07
3.9592225e-07
3.9592223e-07
3.9592218e-07
3.9592225e-07
3.9592223e-07
3.9592218e-07
3.9592218e-07
4.4407738e-07
4.4920432e-07
4.560781e-07
4.6330398e-07
4.6588217e-07
4.6901235e-07
4.739256e-07
4.7548944e-07
4.7555566e-07
4.7485592e-07
4.7031445e-07
4.6109015e-07
4.4786002e-07
4.308432e-07
3.9841984e-07
3.9873021e-07
3.9771042e-07
3.9664979e-07
3.9443278e-07
3.9153703e-07
3.8785777e-07
3.8418658e-07
3.8034772e-07
3.7665396e-07
3.7259166e-07
3.6866227e-07
3.6484945e-07
3.6069577e-07
3.9182726e-07
3.9023763e-07
3.8846978e-07
3.860272e-07
3.8312e-07
3.8005141e-07
3.7714618e-07
3.7467979e-07
3.7260217e-07
3.712257e-07
3.7101765e-07
3.7254475e-07
3.7652692e-07
3.8460323e-07
3.9653114e-07
3.9669041e-07
3.9810636e-07
4.0017075e-07
4.0319885e-07
4.0766913e-07
4.1331767e-07
4.1988123e-07
4.2740378e-07
4.3614975e-07
4.46632e-07
4.5932401e-07
4.74401e-07
4.9219765e-07
4.0374718e-07
4.0594382e-07
4.100803e-07
4.1510617e-07
4.2148985e-07
4.2932744e-07
4.3826754e-07
4.4796315e-07
4.5849111e-07
4.6998186e-07
4.8244289e-07
4.9550506e-07
5.0834093e-07
5.2036927e-07
4.1686811e-07
4.174725e-07
4.2127303e-07
4.2520029e-07
4.3032984e-07
4.3617176e-07
4.4235212e-07
4.4868963e-07
4.5532631e-07
4.6185769e-07
4.6772295e-07
4.7282755e-07
4.7624418e-07
4.7713948e-07
4.4664946e-07
4.3910028e-07
4.3915885e-07
4.3782245e-07
4.3806708e-07
4.390386e-07
4.3998668e-07
4.4069413e-07
4.4129852e-07
4.4153798e-07
4.412378e-07
4.4030059e-07
4.3856416e-07
4.3579447e-07
5.0138706e-07
4.9827808e-07
4.8700869e-07
4.7591961e-07
4.6606226e-07
4.5929171e-07
4.5370985e-07
4.4826066e-07
4.4318222e-07
4.3831358e-07
4.3350706e-07
4.2874827e-07
4.2413731e-07
4.196067e-07
5.006424e-07
5.2101698e-07
5.1696325e-07
5.0819575e-07
4.9399229e-07
4.7859165e-07
4.6693699e-07
4.5931307e-07
4.5291229e-07
4.4658475e-07
4.4002524e-07
4.3343144e-07
4.2716227e-07
4.2141433e-07
4.1312287e-07
4.5623489e-07
4.7785306e-07
4.9027055e-07
4.8727253e-07
4.7328864e-07
4.6210794e-07
4.5669107e-07
4.5226756e-07
4.4781121e-07
4.4232519e-07
4.3586853e-07
4.2910371e-07
4.2253239e-07
3.3040457e-07
3.6316672e-07
3.7587341e-07
3.9836262e-07
4.1592238e-07
4.2037561e-07
4.1795187e-07
4.1555045e-07
4.1541981e-07
4.170347e-07
4.1849478e-07
4.1836576e-07
4.1653508e-07
4.1379615e-07
2.772056e-07
2.735884e-07
2.8135633e-07
2.9870163e-07
3.1711634e-07
3.3422083e-07
3.3968268e-07
3.4262512e-07
3.4800735e-07
3.5574452e-07
3.6419423e-07
3.7252388e-07
3.7923958e-07
3.844663e-07
3.5039503e-07
2.9786218e-07
3.3196134e-07
3.2313896e-07
3.3617012e-07
3.5337518e-07
3.6131147e-07
3.5977979e-07
3.6069107e-07
3.620864e-07
3.6599178e-07
3.713068e-07
3.7650258e-07
3.8004722e-07
6.0220323e-07
5.3729543e-07
5.3087377e-07
5.1961036e-07
4.994087e-07
4.9550606e-07
4.9166589e-07
4.8822635e-07
4.8197283e-07
4.7509282e-07
4.6929818e-07
4.6463235e-07
4.6118182e-07
4.5849104e-07
2.1482599e-07
6.1974814e-07
5.4963136e-07
3.419413e-07
4.1540004e-07
3.926194e-07
3.9459447e-07
3.8925971e-07
3.7770997e-07
3.6456079e-07
3.6370997e-07
3.7648711e-07
3.9408186e-07
4.4089925e-07
2.1626889e-07
3.0629487e-07
5.4542305e-07
3.5123136e-07
4.1975964e-07
3.9205418e-07
3.9414354e-07
3.874972e-07
3.7403681e-07
3.5930859e-07
3.5623417e-07
3.6172711e-07
3.7847535e-07
4.6349239e-07
2.9872707e-07
4.0604367e-07
5.2544872e-07
3.6297378e-07
4.2365128e-07
3.9191768e-07
3.9336134e-07
3.8540597e-07
3.7113298e-07
3.5802296e-07
3.5741153e-07
3.5786695e-07
3.7666805e-07
5.0497088e-07
3.1887136e-07
4.6645756e-07
5.1175889e-07
3.7531025e-07
4.2551674e-07
3.9246691e-07
3.9262015e-07
3.8386331e-07
3.6962295e-07
3.5847478e-07
3.606728e-07
3.5848993e-07
3.7926395e-07
5.1925766e-07
3.0775304e-07
4.8381806e-07
5.0298726e-07
3.9333575e-07
4.2828067e-07
3.9351749e-07
3.9207256e-07
3.8296604e-07
3.6929979e-07
3.5984172e-07
3.6522202e-07
3.6054751e-07
3.8158584e-07
5.1702484e-07
2.9629273e-07
4.4106393e-07
5.4393198e-07
4.1658168e-07
4.3361678e-07
3.9509948e-07
3.9185208e-07
3.8261413e-07
3.6983953e-07
3.6182588e-07
3.7047594e-07
3.654196e-07
3.8480878e-07
5.1020238e-07
2.844308e-07
4.3453752e-07
5.3115074e-07
4.4253505e-07
4.4448772e-07
3.9740726e-07
3.9223045e-07
3.8289452e-07
3.7137982e-07
3.6422114e-07
3.7584393e-07
3.7284292e-07
3.8922561e-07
5.0134753e-07
2.7632637e-07
4.1630995e-07
5.1181958e-07
4.7435266e-07
4.6068191e-07
4.0111133e-07
3.9361607e-07
3.8409535e-07
3.7406965e-07
3.6717136e-07
3.8079581e-07
3.8138135e-07
3.9340901e-07
4.9142816e-07
2.7628105e-07
3.9704752e-07
4.9605913e-07
5.0549869e-07
4.7842027e-07
4.0773956e-07
3.9640042e-07
3.8630044e-07
3.7778304e-07
3.7148476e-07
3.8574088e-07
3.9003046e-07
3.9614715e-07
4.8090088e-07
2.8668542e-07
3.8842181e-07
4.8544339e-07
5.2966905e-07
4.9976496e-07
4.1897038e-07
4.0064498e-07
3.8954962e-07
3.8269397e-07
3.7720636e-07
3.9127482e-07
3.9578736e-07
3.968764e-07
4.7191241e-07
3.0678462e-07
3.7692042e-07
4.7040053e-07
5.4729006e-07
5.1736179e-07
4.3404213e-07
4.0701525e-07
3.9395068e-07
3.8894505e-07
3.8409817e-07
3.967118e-07
3.9968792e-07
3.9469727e-07
4.6435436e-07
3.4038144e-07
3.6699617e-07
4.484689e-07
5.5178412e-07
5.3023079e-07
4.4954165e-07
4.1590975e-07
3.9960086e-07
3.9624238e-07
3.9277803e-07
4.0134896e-07
4.0032279e-07
3.9153156e-07
4.5919982e-07
3.7451166e-07
3.5988392e-07
4.2376454e-07
5.3858986e-07
5.3672697e-07
4.6530581e-07
4.2303908e-07
4.0601295e-07
4.0480026e-07
4.0320062e-07
4.0463215e-07
3.9769131e-07
3.8849978e-07
4.5644748e-07
4.0625836e-07
3.5789954e-07
3.9964856e-07
5.1552209e-07
5.3223872e-07
4.7483636e-07
4.3088899e-07
4.1353287e-07
4.1392287e-07
4.1343371e-07
4.0899508e-07
3.9031043e-07
3.840101e-07
4.5714966e-07
4.9045462e-07
4.725641e-07
3.6525335e-07
4.2837232e-07
3.8825506e-07
3.9776745e-07
3.9587322e-07
3.9640513e-07
3.9536538e-07
3.9028595e-07
3.8094899e-07
3.7463468e-07
3.7743508e-07
3.8724093e-07
4.0345871e-07
3.9716725e-07
4.0216011e-07
3.937203e-07
3.9668251e-07
3.9570946e-07
3.9587016e-07
3.9573837e-07
3.9561516e-07
3.9550795e-07
3.953037e-07
3.9451208e-07
3.9270859e-07
3.9131392e-07
3.9620526e-07
3.964183e-07
3.9574045e-07
3.9603911e-07
3.9587839e-07
3.9592782e-07
3.9591711e-07
3.9592055e-07
3.9590391e-07
3.9584373e-07
3.9572187e-07
3.9551011e-07
3.9517635e-07
3.9477758e-07
3.9592054e-07
3.9591546e-07
3.9592678e-07
3.9591499e-07
3.959201e-07
3.9591804e-07
3.9591853e-07
3.9591813e-07
3.9591782e-07
3.9591753e-07
3.9591543e-07
3.959068e-07
3.9588453e-07
3.9583934e-07
3.9592053e-07
3.9591993e-07
3.9591995e-07
3.959201e-07
3.9591993e-07
3.9592e-07
3.9592e-07
3.9592002e-07
3.9592e-07
3.9591986e-07
3.9591954e-07
3.9591903e-07
3.9591829e-07
3.9591692e-07
3.9592079e-07
3.9592076e-07
3.9592075e-07
3.9592075e-07
3.9592074e-07
3.9592073e-07
3.9592074e-07
3.9592075e-07
3.9592077e-07
3.9592079e-07
3.9592081e-07
3.9592081e-07
3.9592079e-07
3.9592075e-07
3.959212e-07
3.9592118e-07
3.9592118e-07
3.9592118e-07
3.9592118e-07
3.9592117e-07
3.9592118e-07
3.9592118e-07
3.9592119e-07
3.959212e-07
3.9592121e-07
3.9592123e-07
3.9592125e-07
3.9592127e-07
3.9592147e-07
3.9592145e-07
3.9592145e-07
3.9592145e-07
3.9592145e-07
3.9592146e-07
3.9592145e-07
3.9592146e-07
3.9592146e-07
3.9592147e-07
3.9592147e-07
3.9592148e-07
3.9592149e-07
3.9592151e-07
3.9592164e-07
3.9592163e-07
3.9592163e-07
3.9592163e-07
3.9592163e-07
3.9592164e-07
3.9592164e-07
3.9592164e-07
3.9592164e-07
3.9592165e-07
3.9592165e-07
3.9592166e-07
3.9592166e-07
3.9592167e-07
3.9592176e-07
3.9592176e-07
3.9592176e-07
3.9592176e-07
3.9592176e-07
3.9592176e-07
3.9592177e-07
3.9592177e-07
3.9592177e-07
3.9592177e-07
3.9592178e-07
3.9592178e-07
3.9592178e-07
3.9592179e-07
3.9592185e-07
3.9592185e-07
3.9592185e-07
3.9592185e-07
3.9592185e-07
3.9592185e-07
3.9592186e-07
3.9592186e-07
3.9592186e-07
3.9592186e-07
3.9592187e-07
3.9592187e-07
3.9592188e-07
3.9592188e-07
3.9592192e-07
3.9592192e-07
3.9592192e-07
3.9592192e-07
3.9592192e-07
3.9592192e-07
3.9592193e-07
3.9592193e-07
3.9592193e-07
3.9592193e-07
3.9592194e-07
3.9592194e-07
3.9592194e-07
3.9592195e-07
3.9592197e-07
3.9592197e-07
3.9592197e-07
3.9592197e-07
3.9592198e-07
3.9592198e-07
3.9592198e-07
3.9592198e-07
3.9592198e-07
3.9592198e-07
3.9592199e-07
3.9592199e-07
3.9592199e-07
3.9592199e-07
3.9592201e-07
3.9592201e-07
3.9592201e-07
3.9592202e-07
3.9592202e-07
3.9592202e-07
3.9592202e-07
3.9592202e-07
3.9592202e-07
3.9592202e-07
3.9592203e-07
3.9592203e-07
3.9592203e-07
3.9592203e-07
4.4428523e-07
3.9742204e-07
3.9738561e-07
3.9594292e-07
3.9592088e-07
3.959206e-07
3.9592104e-07
3.9592134e-07
3.9592154e-07
3.9592168e-07
3.9592179e-07
3.9592187e-07
3.9592193e-07
3.9592197e-07
4.4001914e-07
3.9770749e-07
3.9722991e-07
3.9594653e-07
3.9592051e-07
3.9592068e-07
3.9592111e-07
3.9592139e-07
3.9592158e-07
3.9592172e-07
3.9592181e-07
3.9592189e-07
3.9592195e-07
3.9592199e-07
4.353145e-07
4.0137255e-07
3.9668939e-07
3.9594631e-07
3.9592019e-07
3.9592074e-07
3.9592117e-07
3.9592144e-07
3.9592162e-07
3.9592175e-07
3.9592184e-07
3.9592191e-07
3.9592196e-07
3.95922e-07
3.9592226e-07
3.9592226e-07
3.9592226e-07
3.9592226e-07
3.9592226e-07
3.9592226e-07
3.9592226e-07
3.9592226e-07
3.9592226e-07
3.9592226e-07
3.9592226e-07
3.9592226e-07
3.9592226e-07
3.9592226e-07
3.9592226e-07
3.9592226e-07
3.9592226e-07
3.9592226e-07
3.9592226e-07
3.9592226e-07
3.9592226e-07
3.9592226e-07
3.9592226e-07
3.9592226e-07
3.9592226e-07
3.9592226e-07
3.9592226e-07
3.9592226e-07
3.9592226e-07
3.9592226e-07
3.9592226e-07
3.9592226e-07
3.9592226e-07
3.9592226e-07
3.9592226e-07
3.9592225e-07
3.9592226e-07
3.9592226e-07
3.9592226e-07
3.9592226e-07
3.9592226e-07
3.9592226e-07
3.9592226e-07
3.9592226e-07
3.9592226e-07
3.9592225e-07
3.9592225e-07
3.9592226e-07
3.9592226e-07
3.9592226e-07
3.9592226e-07
3.9592226e-07
3.9592226e-07
3.9592226e-07
3.9592226e-07
3.9592226e-07
3.9592225e-07
3.9592225e-07
3.9592225e-07
3.9592226e-07
3.9592226e-07
3.9592226e-07
3.9592226e-07
3.9592226e-07
3.9592226e-07
3.9592226e-07
3.9592226e-07
3.9592226e-07
3.9592225e-07
3.9592225e-07
3.9592225e-07
3.9592223e-07
3.9592226e-07
3.9592226e-07
3.9592226e-07
3.9592226e-07
3.9592226e-07
3.9592226e-07
3.9592226e-07
3.9592226e-07
3.9592226e-07
3.9592225e-07
3.9592225e-07
3.9592225e-07
3.9592223e-07
3.9592218e-07
3.9592226e-07
3.9592226e-07
3.9592226e-07
3.9592226e-07
3.9592226e-07
3.9592226e-07
3.9592226e-07
3.9592226e-07
3.9592226e-07
3.9592225e-07
3.9592225e-07
3.9592225e-07
3.9592223e-07
3.9592218e-07
3.9592226e-07
3.9592226e-07
3.9592226e-07
3.9592226e-07
3.9592226e-07
3.9592226e-07
3.9592226e-07
3.9592226e-07
3.9592226e-07
3.9592225e-07
3.9592225e-07
3.9592225e-07
3.9592223e-07
3.9592218e-07
3.9592226e-07
3.9592226e-07
3.9592226e-07
3.9592226e-07
3.9592226e-07
3.9592226e-07
3.9592226e-07
3.9592226e-07
3.9592226e-07
3.9592225e-07
3.9592225e-07
3.9592225e-07
3.9592223e-07
3.9592218e-07
3.9592226e-07
3.9592226e-07
3.9592226e-07
3.9592226e-07
3.9592226e-07
3.9592226e-07
3.9592226e-07
3.9592226e-07
3.9592226e-07
3.9592225e-07
3.9592225e-07
3.9592225e-07
3.9592223e-07
3.9592218e-07
3.9592218e-07
3.9592223e-07
3.9592225e-07
3.9592225e-07
3.9592225e-07
3.9592226e-07
3.9592226e-07
3.9592226e-07
3.9592226e-07
3.9592226e-07
3.9592226e-07
3.9592226e-07
3.9592226e-07
3.9592226e-07
3.9592218e-07
3.9592223e-07
3.9592225e-07
3.9592225e-07
3.9592225e-07
3.9592226e-07
3.9592226e-07
3.9592226e-07
3.9592226e-07
3.9592226e-07
3.9592226e-07
3.9592226e-07
3.9592226e-07
3.9592226e-07
3.9592218e-07
3.9592223e-07
3.9592225e-07
3.9592225e-07
3.9592225e-07
3.9592226e-07
3.9592226e-07
3.9592226e-07
3.9592226e-07
3.9592226e-07
3.9592226e-07
3.9592226e-07
3.9592226e-07
3.9592226e-07
3.9592218e-07
3.9592223e-07
3.9592225e-07
3.9592225e-07
3.9592225e-07
3.9592226e-07
3.9592226e-07
3.9592226e-07
3.9592226e-07
3.9592226e-07
3.9592226e-07
3.9592226e-07
3.9592226e-07
3.9592226e-07
3.9592217e-07
3.9592223e-07
3.9592225e-07
3.9592225e-07
3.9592225e-07
3.9592226e-07
3.9592226e-07
3.9592226e-07
3.9592226e-07
3.9592226e-07
3.9592226e-07
3.9592226e-07
3.9592226e-07
3.9592226e-07
3.9592217e-07
3.9592223e-07
3.9592225e-07
3.9592225e-07
3.9592225e-07
3.9592226e-07
3.9592226e-07
3.9592226e-07
3.9592226e-07
3.9592226e-07
3.9592226e-07
3.9592226e-07
3.9592226e-07
3.9592226e-07
3.9592217e-07
3.9592223e-07
3.9592225e-07
3.9592225e-07
3.9592225e-07
3.9592226e-07
3.9592226e-07
3.9592226e-07
3.9592226e-07
3.9592226e-07
3.9592226e-07
3.9592226e-07
3.9592226e-07
3.9592226e-07
3.9592217e-07
3.9592223e-07
3.9592225e-07
3.9592225e-07
3.9592225e-07
3.9592226e-07
3.9592226e-07
3.9592226e-07
3.9592226e-07
3.9592226e-07
3.9592226e-07
3.9592226e-07
3.9592226e-07
3.9592217e-07
3.9592223e-07
3.9592225e-07
3.9592225e-07
3.9592225e-07
3.9592226e-07
3.9592226e-07
3.9592226e-07
3.9592226e-07
3.9592226e-07
3.9592226e-07
3.9592226e-07
3.9592217e-07
3.9592223e-07
3.9592225e-07
3.9592225e-07
3.9592225e-07
3.9592226e-07
3.9592226e-07
3.9592226e-07
3.9592226e-07
3.9592226e-07
3.9592226e-07
3.9592217e-07
3.9592223e-07
3.9592225e-07
3.9592225e-07
3.9592225e-07
3.9592226e-07
3.9592226e-07
3.9592226e-07
3.9592226e-07
3.9592226e-07
3.9592217e-07
3.9592223e-07
3.9592225e-07
3.9592225e-07
3.9592225e-07
3.9592226e-07
3.9592226e-07
3.9592226e-07
3.9592226e-07
3.9592217e-07
3.9592223e-07
3.9592225e-07
3.9592225e-07
3.9592225e-07
3.9592226e-07
3.9592226e-07
3.9592226e-07
3.9592217e-07
3.9592223e-07
3.9592225e-07
3.9592225e-07
3.9592225e-07
3.9592226e-07
3.9592226e-07
3.9592226e-07
3.9592226e-07
3.9592225e-07
3.9592225e-07
3.9592225e-07
3.9592223e-07
3.9592217e-07
3.9592225e-07
3.9592225e-07
3.9592223e-07
3.9592217e-07
3.9592216e-07
4.1396052e-07
3.9480819e-07
3.993426e-07
3.9698073e-07
3.9290678e-07
3.9177948e-07
3.9198799e-07
3.9186138e-07
3.942689e-07
3.943234e-07
3.9424674e-07
3.9419756e-07
3.9574082e-07
3.957577e-07
3.9574148e-07
3.9573293e-07
3.9591159e-07
3.9591271e-07
3.9591176e-07
3.9591126e-07
3.9592057e-07
3.9592064e-07
3.9592054e-07
3.9592051e-07
3.9592128e-07
3.9592132e-07
3.9592131e-07
3.9592129e-07
3.9592152e-07
3.9592155e-07
3.9592156e-07
3.9592155e-07
3.9592168e-07
3.959217e-07
3.9592171e-07
3.9592171e-07
3.959218e-07
3.9592181e-07
3.9592182e-07
3.9592182e-07
3.9592188e-07
3.9592189e-07
3.959219e-07
3.959219e-07
3.9592195e-07
3.9592195e-07
3.9592196e-07
3.9592196e-07
3.95922e-07
3.95922e-07
3.9592201e-07
3.9592201e-07
3.9592204e-07
3.9592204e-07
3.9592204e-07
3.9592204e-07
3.9592205e-07
3.9592205e-07
3.9592205e-07
3.9592204e-07
3.9592205e-07
3.9592205e-07
3.9592204e-07
3.9592201e-07
3.9592201e-07
3.9592201e-07
3.9592201e-07
3.9592201e-07
3.9592201e-07
3.9592197e-07
3.9592196e-07
3.9592196e-07
3.9592196e-07
3.9592196e-07
3.9592196e-07
3.9592191e-07
3.959219e-07
3.959219e-07
3.959219e-07
3.959219e-07
3.9592183e-07
3.9592182e-07
3.9592182e-07
3.9592182e-07
3.9592182e-07
3.9592171e-07
3.9592171e-07
3.9592171e-07
3.9592171e-07
3.9592156e-07
3.9592155e-07
3.9592155e-07
3.9592156e-07
3.9592131e-07
3.9592131e-07
3.9592131e-07
3.9592068e-07
3.9592068e-07
3.9592069e-07
3.9591361e-07
3.9591378e-07
3.957594e-07
3.9576356e-07
3.9442485e-07
)
;

boundaryField
{
    Side
    {
        type            empty;
    }
    Inlet
    {
        type            inletOutlet;
        inletValue      uniform 3.9592226e-07;
        value           nonuniform List<scalar> 
28
(
3.9592226e-07
3.9592226e-07
3.9592226e-07
3.9592226e-07
3.9592226e-07
3.9592226e-07
3.9592226e-07
3.9592226e-07
3.9592226e-07
3.9592226e-07
3.9592226e-07
3.9592226e-07
3.9592226e-07
3.9592226e-07
3.9592226e-07
3.9592226e-07
3.9592226e-07
3.9592226e-07
3.9592226e-07
3.9592226e-07
3.9592226e-07
3.9592226e-07
3.9592226e-07
3.9592226e-07
3.9592226e-07
3.9592226e-07
3.9592226e-07
3.9592226e-07
)
;
    }
    Airfoil
    {
        type            nutUSpaldingWallFunction;
        value           nonuniform List<scalar> 
60
(
5.5351762e-06
5.5698884e-06
5.5964682e-06
5.6229251e-06
5.648874e-06
5.6742718e-06
5.7000282e-06
5.7286354e-06
5.7625083e-06
5.8004397e-06
5.8327262e-06
5.8372878e-06
5.7772492e-06
5.6375386e-06
1.4501341e-05
1.4506413e-05
1.4514539e-05
1.4525308e-05
1.4535835e-05
1.4543135e-05
1.4547406e-05
1.4553265e-05
1.4572676e-05
1.460336e-05
1.4608627e-05
1.4531341e-05
1.4565486e-05
1.3788261e-05
2.3146065e-06
2.1072561e-06
1.9518776e-06
1.8578381e-06
1.7941498e-06
1.77987e-06
1.8271494e-06
1.8980029e-06
1.9501722e-06
1.9767416e-06
1.9903549e-06
2.0048397e-06
2.0255548e-06
2.0511794e-06
3.6690874e-06
3.4973958e-06
3.2214991e-06
2.9643283e-06
2.7663309e-06
2.6198206e-06
2.5082799e-06
2.4189733e-06
2.3436766e-06
2.2765227e-06
2.2165541e-06
2.165981e-06
2.1241664e-06
2.0820506e-06
1.4078889e-05
1.427517e-05
1.4287638e-05
1.4247886e-05
)
;
    }
    Outlet
    {
        type            zeroGradient;
    }
    Flap
    {
        type            nutUSpaldingWallFunction;
        value           nonuniform List<scalar> 
36
(
2.0952607e-06
2.032471e-06
1.9750493e-06
1.9229235e-06
1.8744877e-06
2.1494025e-06
2.1721049e-06
2.2036279e-06
2.2454883e-06
2.3016196e-06
2.3638596e-06
2.4216388e-06
2.4740774e-06
2.5253759e-06
2.5758085e-06
2.6218011e-06
2.6606092e-06
2.6896832e-06
2.7072723e-06
1.283006e-06
1.7699183e-06
2.3327189e-06
2.7937896e-06
3.0806831e-06
3.1926118e-06
3.2051541e-06
3.1577428e-06
3.0314833e-06
2.8993821e-06
2.8038925e-06
2.776302e-06
2.7679907e-06
2.754674e-06
1.2125872e-05
1.2291881e-05
1.1839042e-05
)
;
    }
    procBoundary2to1
    {
        type            processor;
        value           nonuniform List<scalar> 
73
(
3.9592226e-07
3.9592226e-07
3.9592226e-07
3.9592226e-07
3.9592226e-07
3.9592226e-07
3.9592226e-07
3.9592226e-07
3.9592226e-07
3.9592225e-07
3.9592225e-07
3.9592225e-07
3.9592223e-07
3.9592218e-07
3.9218173e-07
3.9916578e-07
3.9592226e-07
3.9592226e-07
3.9592226e-07
3.9592226e-07
3.9592226e-07
3.9592226e-07
3.9592226e-07
3.9592226e-07
3.9592226e-07
3.9592226e-07
3.9592226e-07
3.9592226e-07
3.9592226e-07
3.9592226e-07
3.9592225e-07
3.9592225e-07
3.9592225e-07
3.9592225e-07
3.9592225e-07
3.9592223e-07
3.9592223e-07
3.9592218e-07
3.9592218e-07
3.9592204e-07
3.9722587e-07
3.9180027e-07
3.9412807e-07
3.957213e-07
3.9591059e-07
3.9592045e-07
3.9592128e-07
3.9592153e-07
3.9592169e-07
3.9592181e-07
3.9592189e-07
3.9592195e-07
3.95922e-07
3.9592204e-07
3.9592204e-07
3.9592201e-07
3.9592201e-07
3.9592196e-07
3.959219e-07
3.959219e-07
3.9592182e-07
3.9592171e-07
3.9592171e-07
3.9592155e-07
3.959213e-07
3.959213e-07
3.9592069e-07
3.9591397e-07
3.9591397e-07
3.9576774e-07
3.9444397e-07
3.9444397e-07
3.9218173e-07
)
;
    }
    procBoundary2to3
    {
        type            processor;
        value           nonuniform List<scalar> 
113
(
3.9592226e-07
3.9592226e-07
4.0552682e-07
4.1255607e-07
4.0382401e-07
4.0166089e-07
3.9966195e-07
3.9652943e-07
3.9597797e-07
3.9355754e-07
3.914795e-07
3.8844566e-07
3.8488182e-07
3.8007371e-07
3.7656373e-07
3.7141687e-07
3.7141687e-07
3.9339516e-07
3.9537512e-07
3.9395104e-07
3.9395104e-07
4.1255607e-07
3.8427784e-07
3.7464996e-07
4.0236451e-07
3.9478548e-07
3.9686237e-07
3.8696239e-07
3.8197212e-07
3.8422329e-07
3.9319529e-07
4.0366388e-07
4.1072791e-07
4.1484272e-07
4.0281637e-07
4.0281637e-07
4.2571117e-07
3.9592205e-07
3.9592218e-07
3.9592201e-07
3.9592201e-07
3.9592197e-07
3.9592197e-07
3.9592191e-07
3.9592191e-07
3.9592183e-07
3.9592172e-07
3.9592172e-07
3.9592157e-07
3.9592157e-07
3.9592133e-07
3.9592133e-07
3.9592063e-07
3.9592063e-07
3.9591242e-07
3.9591242e-07
3.9575283e-07
3.9575283e-07
3.9447955e-07
3.9447955e-07
3.9592226e-07
3.9592226e-07
3.9592226e-07
3.9592226e-07
3.9592226e-07
3.9592226e-07
3.9592226e-07
3.9592226e-07
3.9592225e-07
3.9592225e-07
3.9592225e-07
3.9592225e-07
3.9592223e-07
3.9592223e-07
3.9592218e-07
4.4602474e-07
3.9754352e-07
3.9754924e-07
3.9594554e-07
3.959209e-07
3.959205e-07
3.9592097e-07
3.9592129e-07
3.959215e-07
3.9592165e-07
3.9592176e-07
3.9592184e-07
3.9592191e-07
3.9592196e-07
3.9592226e-07
3.9592226e-07
3.9592226e-07
3.9592226e-07
3.9592226e-07
3.9592226e-07
3.9592226e-07
3.9592226e-07
3.9592226e-07
3.9592226e-07
3.9592226e-07
3.9592226e-07
3.9592226e-07
3.9592226e-07
3.9592226e-07
3.9592226e-07
3.9592226e-07
3.9592225e-07
3.9592225e-07
3.9592225e-07
3.9592225e-07
3.9592223e-07
3.9592223e-07
3.9592216e-07
)
;
    }
}


// ************************************************************************* //
