/*--------------------------------*- C++ -*----------------------------------*\
| =========                 |                                                 |
| \\      /  F ield         | OpenFOAM: The Open Source CFD Toolbox           |
|  \\    /   O peration     | Version:  2206                                  |
|   \\  /    A nd           | Website:  www.openfoam.com                      |
|    \\/     M anipulation  |                                                 |
\*---------------------------------------------------------------------------*/
FoamFile
{
    version     2.0;
    format      ascii;
    arch        "LSB;label=32;scalar=64";
    class       volScalarField;
    location    "0.02";
    object      p;
}
// * * * * * * * * * * * * * * * * * * * * * * * * * * * * * * * * * * * * * //

dimensions      [1 -1 -2 0 0 0 0];

internalField   nonuniform List<scalar> 
1396
(
1
1
1
1
1
1
1
1
1
1
1
1
1
1
1
1
1
1
1
1
1
1
1
1
1
1
1
1
1
1
1
1
1
1
1
1
1
1
1
1
1
1
1
1
1
1
1
1
1
1
1
1
1
1
1
1
1
1
1
1
1
1
1
1
1
1
1
1
1
1
1
1
1
1
1
1
1
1
1
1
1
1
1
1
1
1
1
1
1
1
1
1
1
1
1
1
1
1
0.46848652
0.81099301
0.95526853
0.46949088
0.81289225
0.9555044
0.46999086
0.81532842
0.95618556
0.47060575
0.81749953
0.95697359
0.47113747
0.81975336
0.95792337
0.47170027
0.82184792
0.95896368
0.47205512
0.82381003
0.96011448
0.47191458
0.82557798
0.96132982
0.47093924
0.82704827
0.96259109
0.46936133
0.82830063
0.96397273
0.46885429
0.82947337
0.9655929
0.47304043
0.83068406
0.96740867
0.48752403
0.83194225
0.96888376
0.51360837
0.83312101
0.96920505
0.99553864
0.99414209
0.95173863
0.86096221
0.96470953
1.0528888
1.1024347
1.1183557
1.0872288
1.0504801
1.0161333
0.99629226
0.9847523
0.97729758
0.97114383
0.96941878
0.96047487
0.84392403
0.91601441
0.9994218
1.0439122
1.0674156
1.0540738
1.0295097
1.0026267
0.98353718
0.97102169
0.96283003
0.95637018
0.95619291
0.9488831
0.96242029
0.97783434
0.99699683
1.0148657
1.0268159
1.0209655
1.0055327
0.98568386
0.96887311
0.95646157
0.9485875
0.94250833
0.94385711
0.93753438
0.99854107
1.0036233
1.0058501
1.0076945
1.006769
0.99841171
0.98533812
0.96904181
0.95353341
0.94141848
0.93454684
0.92921884
0.93182525
0.92576637
0.91381877
1
1
1
1
1
1
1
1
0.99999989
0.99999656
0.99988263
0.99851786
0.98793466
0.86537337
1
1
1
1
1
1
1
1
0.99999988
0.99999646
0.99987983
0.99849341
0.98772842
0.86395017
1
1
1
1
1
1
1
1
0.99999988
0.99999638
0.99987775
0.99847402
0.98754722
0.8626401
1
1
1
1
1
1
1
1
0.99999988
0.99999632
0.99987585
0.99845607
0.98737631
0.86136801
1
1
1
1
1
1
0.99999988
0.99999627
0.9998741
0.99843985
0.98722201
0.86018783
1
1
1
1
1
0.99999987
0.99999622
0.99987274
0.99842863
0.98710692
0.85927264
1
1
1
1
0.99999987
0.9999962
0.99987196
0.99842442
0.98703877
0.85870548
1
1
0.99999987
0.9999962
0.99987182
0.99842563
0.98700438
0.85844194
1
0.99999987
0.9999962
0.99987156
0.99842109
0.98692992
0.85792779
0.99999987
0.99999615
0.99987011
0.99840088
0.98677363
0.85670606
0.99999609
0.99986828
0.99839048
0.98665618
0.85566679
0.99987102
0.9984374
0.98694399
0.85734239
0.99850535
0.9873244
0.86484464
0.98843682
0.84993482
1
1
1
1
1
1
1
1
1
1
1
1
1
1
1
1
0.97108525
0.98138979
0.99410724
1.0044969
1.0104965
1.0163094
1.0240994
1.0331166
1.0423125
1.051567
1.0618704
1.0726259
1.0807897
1.0891387
0.98186482
0.99207444
1.0029344
1.0132126
1.0227089
1.0327852
1.0445637
1.0582488
1.0736935
1.0908142
1.1096475
1.1305054
1.1539409
1.1808822
0.9845821
0.99557122
1.0061796
1.0161183
1.0259776
1.0367681
1.0490408
1.062989
1.0785602
1.0958549
1.1150881
1.1365879
1.1608717
1.1883009
0.9899447
1.0000079
1.0096663
1.0188867
1.0282335
1.0382965
1.0493496
1.0614451
1.0745076
1.0885072
1.1034151
1.1190043
1.1349684
1.1504332
0.99567801
1.0038147
1.0113987
1.0185261
1.0255977
1.0328396
1.0403637
1.0482072
1.0562589
1.0644357
1.0726583
1.0807223
1.0884594
1.0951894
1.0047264
1.0092835
1.0134163
1.0171202
1.0206942
1.0242023
1.0276699
1.0311292
1.0345103
1.037612
1.0403263
1.0425635
1.0442282
1.0449758
1.0229802
1.0228938
1.0228408
1.0224307
1.0221529
1.0221299
1.0222787
1.0224711
1.0226058
1.0225973
1.0223972
1.0220071
1.021393
1.020356
1.0596151
1.0582589
1.0538272
1.0477472
1.0417427
1.0370986
1.0335456
1.0304143
1.0275708
1.0248022
1.0220359
1.0192956
1.0166216
1.0140638
1.1046294
1.105424
1.1016428
1.0932706
1.0825044
1.0714113
1.0618988
1.0546846
1.0489184
1.0436132
1.0383059
1.0329483
1.0277486
1.022948
1.1554606
1.1758013
1.1809243
1.1735869
1.1565143
1.1364665
1.118377
1.1043151
1.0932032
1.0833125
1.0735134
1.0634538
1.0533673
1.0439002
1.1535749
1.1868726
1.2052881
1.2109276
1.203025
1.183243
1.1583859
1.1380952
1.1238415
1.1129521
1.1025086
1.0910472
1.0786243
1.0664443
1.1209856
1.1764406
1.214417
1.2356498
1.2391179
1.2230133
1.1939412
1.1692864
1.1532532
1.1417169
1.1306199
1.117916
1.103288
1.0878827
1.0747985
1.1359702
1.1784659
1.204405
1.215962
1.2090733
1.1860267
1.1610796
1.14325
1.1318691
1.1227593
1.112732
1.1006321
1.0870991
0.98959283
1.0980382
1.1566218
1.1932896
1.212324
1.2068751
1.1774652
1.1473985
1.1289487
1.1189887
1.1116152
1.1030064
1.0921781
1.0800373
2.2594754
0.86453902
1.2984944
0.98554965
1.0062026
0.99980811
0.99955496
0.99734628
0.98912657
0.96787754
0.93041751
0.88489936
0.84952677
0.78186928
1.8891401
0.89568079
1.3107011
0.99348857
1.0094882
0.99991413
0.99933528
0.99641887
0.98659913
0.96274984
0.92066975
0.8655482
0.83547338
0.77311392
1.8953802
0.96059442
1.3130866
0.999879
1.0125448
1.0000815
0.99904022
0.99531995
0.98418902
0.95957134
0.91833881
0.86293857
0.84600642
0.7931091
1.8038588
1.0707158
1.3140616
1.0117257
1.0151253
1.0004201
0.99878234
0.99447322
0.98265337
0.95844058
0.92017807
0.86541626
0.85730123
0.81713669
1.7068536
1.1861872
1.3186793
1.0287691
1.0188497
1.0010068
0.99860152
0.99389511
0.98186346
0.95864553
0.92473417
0.87090057
0.87065405
0.84138374
1.6014094
1.2971148
1.3317256
1.0482882
1.024635
1.00199
0.99857863
0.9936012
0.98179199
0.96000583
0.93117678
0.88002114
0.88564609
0.86670452
1.4906983
1.3811915
1.3468726
1.0705163
1.0340426
1.0037198
0.99886523
0.99371022
0.98268176
0.962796
0.93947156
0.89305796
0.90242221
0.89295358
1.3877469
1.4374052
1.3603607
1.0978356
1.0468859
1.0066164
0.99968418
0.99436527
0.98468033
0.96739221
0.94991643
0.90966965
0.92112077
0.91931296
1.2993079
1.4570365
1.3656932
1.1297943
1.0611699
1.0112451
1.0012749
0.99562696
0.98776914
0.97396641
0.96249901
0.93005137
0.94209836
0.94518835
1.2349199
1.4391508
1.3619755
1.158175
1.0755619
1.01773
1.0036555
0.9974899
0.99194898
0.98237471
0.97747346
0.95391147
0.96532804
0.97016742
1.1836654
1.3909902
1.3466677
1.1758718
1.0899871
1.0253654
1.0070776
0.99999943
0.99716204
0.99269441
0.99447597
0.98090546
0.98946775
0.99475933
1.1491591
1.3326219
1.3161336
1.1829248
1.0996057
1.0328819
1.0111603
1.0031539
1.0032152
1.0045788
1.0124493
1.0095751
1.0144247
1.0181132
1.1203445
1.2727295
1.2739001
1.1803652
1.1028721
1.0397057
1.0150956
1.0069075
1.0099961
1.0178439
1.0308953
1.0379681
1.0399255
1.0399424
1.1028351
1.2186147
1.2261101
1.1681379
1.1010426
1.0439935
1.0182834
1.0107575
1.0170931
1.0319113
1.0503248
1.0654696
1.0659731
1.0613184
1.1144773
1.1631416
0.99975375
1.0129866
1.0000703
1.0001334
1.0000533
1.0000897
0.99986351
0.99736163
0.9885235
0.96907038
0.94041326
0.90793683
1.0226537
1.003546
1.004066
1.0000382
1.0001198
0.99999434
0.99997945
0.99993173
0.99981931
0.9995852
0.99907951
0.99798375
0.99570521
0.992027
1.0003844
1.0004615
1.0000489
1.0000318
1.0000002
1.0000009
1.0000003
0.99999976
0.99999486
0.99997277
0.99990684
0.99975224
0.99944484
0.99896511
1.0000045
1.0000052
1.0000031
1.0000002
1.0000002
0.99999999
0.99999997
0.99999984
0.99999952
0.99999872
0.99999666
0.99999069
0.9999746
0.99993952
1.0000003
1
1
1
1
1
1
0.99999999
0.99999997
0.99999991
0.99999974
0.99999941
0.99999879
0.99999778
1
1
1
1
1
1
1
1
1
1
0.99999999
0.99999998
0.99999995
0.9999999
1
1
1
1
1
1
1
1
1
1
1
1
1
1
1
1
1
1
1
1
1
1
1
1
1
1
1
1
1
1
1
1
1
1
1
1
1
1
1
1
1
1
1
1
1
1
1
1
1
1
1
1
1
1
1
1
1
1
1
1
1
1
1
1
1
1
1
1
1
1
1
1
1
1
1
1
1
1
1
1
1
1
1
1
1
1
1
1
1
1
1
1
1
1
1
1
1
1
1
1
1
1
1
1
1
1
1
1
1
1
1
1
1.120897
1.0047093
1.0012886
1.0000199
1.0000005
1
1
1
1
1
1
1
1
1
1.1138743
1.0048016
1.0012039
1.000021
1.0000003
1
1
1
1
1
1
1
1
1
1.107686
1.0095768
1.0007353
1.0000199
1.0000002
1
1
1
1
1
1
1
1
1
1
1
1
1
1
1
1
1
1
1
1
1
1
1
1
1
1
1
1
1
1
1
1
1
1
1
1
1
1
1
1
1
1
1
1
1
1
1
1
1
1
1
1
1
1
1
1
1
1
1
1
1
1
1
1
1
1
1
1
1
1
1
1
1
1
1
1
1
1
1
1
1
1
1
1
1
1
1
1
1
1
1
1
1
1
1
1
1
1
1
1
1
1
1
1
1
1
1
1
1
1
1
1
1
1
1
1
1
1
1
1
1
1
1
1
1
1
1
1
1
1
1
1
1
1
1
1
1
1
1
1
1
1
1
1
1
1
1
1
1
1
1
1
1
1
1
1
1
1
1
1
1
1
1
1
1
1
1
1
1
1
1
1
1
1
1
1
1
1
1
1
1
1
1
1
1
1
1
1
1
1
1
1
1
1
1
1
1
1
1
1
1
1
1
1
1
1
1
1
1
1
1
1
1
1
1
1
1
1
1
1
1
1
1
1
1
1
1
1
1
1
1
1
1
1
1
1
1
1
1
1
1
1
1
1
1
1
1
1
1
1
1
1
1
1
1
1
1
1
1
1
1
1
1
1
1
1
1
1
1
1
1
1
1
1
1
1
1
1
1
1
1
1
1
1
1
1
1
1
1
1
1
1
1
1
1
1
1
1
1
1
1
1
1
1
1
1
1
1
1
1
1
1
1
1
1
1
1
1
1
1
1
1
1
1
1
1
1
1
1
1
1
0.87916495
0.86824586
0.86224178
0.85910912
0.9878101
0.98820271
0.98775028
0.98735497
0.99833189
0.99838731
0.99831228
0.99824284
0.99988342
0.99988412
0.99987543
0.99986793
0.99999601
0.99999619
0.99999588
0.99999559
0.99999986
0.99999986
0.99999984
0.99999983
1
1
1
1
1
1
1
1
1
1
1
1
1
1
1
1
1
1
1
1
1
1
1
1
1
1
1
1
1
1
1
1
1
1
1
1
1
1
1
1
1
1
1
1
1
1
1
1
1
1
1
1
1
1
1
1
1
1
1
1
1
1
1
1
1
1
1
1
1
1
1
1
0.9999999
0.9999999
0.9999999
0.99999677
0.99999686
0.9998874
0.99989017
0.99854997
)
;

boundaryField
{
    Side
    {
        type            empty;
    }
    Inlet
    {
        type            inletOutlet;
        inletValue      uniform 1;
        value           nonuniform List<scalar> 
28
(
1
1
1
1
1
1
1
1
1
1
1
1
1
1
1
1
1
1
1
1
1
1
1
1
1
1
1
1
)
;
    }
    Airfoil
    {
        type            zeroGradient;
    }
    Outlet
    {
        type            zeroGradient;
    }
    Flap
    {
        type            zeroGradient;
    }
    procBoundary2to1
    {
        type            processor;
        value           nonuniform List<scalar> 
73
(
1
1
1
1
1
1
1
1
1
1
1
1
1
1
0.9881642
0.86707284
1
1
1
1
1
1
1
1
1
1
1
1
1
1
1
1
1
1
1
1
1
1
1
1
0.85612607
0.98691331
0.99816708
0.99985986
0.99999529
0.99999982
1
1
1
1
1
1
1
1
1
1
1
1
1
1
1
1
1
1
1
1
0.99999991
0.99999697
0.99999697
0.99989365
0.99857549
0.99857549
0.9881642
)
;
    }
    procBoundary2to3
    {
        type            processor;
        value           nonuniform List<scalar> 
113
(
1
1
0.99259157
1.0010875
0.99233861
0.99226549
0.9922619
0.99235895
0.99250573
0.99269007
0.99292105
0.99320795
0.99352844
0.99385702
0.99423405
0.99480336
0.99480336
0.99529978
0.99593912
0.99289638
0.99289638
1.0010875
0.99715369
1.0011836
1.0026599
1.0011123
0.99528268
0.98433444
0.97033126
0.95409875
0.93851633
0.92647877
0.92099037
0.91656407
0.91984458
0.91984458
0.90239671
1
1
1
1
1
1
1
1
1
1
1
1
1
1
1
0.99999987
0.99999987
0.99999622
0.99999622
0.99988381
0.99988381
0.99862444
0.99862444
1
1
1
1
1
1
1
1
1
1
1
1
1
1
1
1.1289333
1.0051953
1.0014473
1.000023
1.0000006
1
1
1
1
1
1
1
1
1
1
1
1
1
1
1
1
1
1
1
1
1
1
1
1
1
1
1
1
1
1
1
1
1
)
;
    }
}


// ************************************************************************* //
