/*--------------------------------*- C++ -*----------------------------------*\
| =========                 |                                                 |
| \\      /  F ield         | OpenFOAM: The Open Source CFD Toolbox           |
|  \\    /   O peration     | Version:  2206                                  |
|   \\  /    A nd           | Website:  www.openfoam.com                      |
|    \\/     M anipulation  |                                                 |
\*---------------------------------------------------------------------------*/
FoamFile
{
    version     2.0;
    format      ascii;
    arch        "LSB;label=32;scalar=64";
    class       surfaceScalarField;
    location    "0.02";
    object      phi;
}
// * * * * * * * * * * * * * * * * * * * * * * * * * * * * * * * * * * * * * //

dimensions      [1 0 -1 0 0 0 0];

oriented        oriented;

internalField   nonuniform List<scalar> 
2637
(
-0.00086154189
0.2853392
-0.0010363824
0.2853392
-0.0012112221
0.2853392
-0.0013860634
0.2853392
-0.0015609031
0.2853392
-0.0017357436
0.2853392
-0.0019105833
0.2853392
-0.0020854238
0.2853392
-0.0022602634
0.2853392
-0.0024351039
0.2853392
-0.0026099444
0.2853392
-0.002784785
0.2853392
-0.0029596249
0.2853392
0.2853392
-0.003134465
-0.00086154275
0.28551404
-0.0010363824
0.28551404
-0.0012112229
0.28551404
-0.0013860626
0.28551404
-0.0015609039
0.28551404
-0.0017357436
0.28551404
-0.0019105841
0.28551404
-0.0020854238
0.28551404
-0.0022602643
0.28551404
-0.0024351039
0.28551404
-0.0026099444
0.28551404
-0.0027847841
0.28551404
-0.0029596248
0.28551404
0.28551404
-0.003134465
-0.00086154275
0.28568888
-0.0010363833
0.28568888
-0.0012112229
0.28568888
-0.0013860634
0.28568888
-0.0015609031
0.28568888
-0.0017357436
0.28568888
-0.0019105833
0.28568888
-0.0020854238
0.28568888
-0.0022602643
0.28568888
-0.0024351048
0.28568888
-0.0026099444
0.28568888
-0.002784785
0.28568888
-0.0029596248
0.28568888
0.28568888
-0.003134465
-0.00086154189
0.28586372
-0.0010363824
0.28586372
-0.0012112229
0.28586372
-0.0013860634
0.28586372
-0.0015609031
0.28586372
-0.0017357427
0.28586372
-0.0019105841
0.28586372
-0.0020854238
0.28586372
-0.0022602634
0.28586372
-0.0024351039
0.28586372
-0.0026099444
0.28586372
-0.0027847846
0.28586372
-0.0029596248
0.28586372
0.28586372
-0.003134465
-0.00086154275
0.28603856
-0.0010363824
0.28603856
-0.0012112229
0.28603856
-0.0013860626
0.28603856
-0.0015609031
0.28603856
-0.0017357436
0.28603856
-0.0019105833
0.28603856
-0.0020854238
0.28603856
-0.0022602643
0.28603856
-0.0024351039
0.28603856
-0.0026099444
0.28603856
-0.0027847845
0.28603856
-0.0029596249
0.28603856
0.28603856
-0.003134465
-0.00086154275
0.2862134
-0.0010363824
0.2862134
-0.0012112229
0.2862134
-0.0013860634
0.2862134
-0.0015609031
0.2862134
-0.0017357436
0.2862134
-0.0019105841
0.2862134
-0.0020854238
0.2862134
-0.0022602643
0.2862134
-0.0024351048
0.2862134
-0.0026099444
0.2862134
-0.0027847846
0.2862134
-0.0029596248
0.2862134
0.2862134
-0.003134465
-0.00086154189
-0.0010363833
-0.0012112229
0.28638824
-0.0013860626
0.28638824
-0.0015609031
0.28638824
-0.0017357436
0.28638824
-0.0019105833
0.28638824
-0.0020854238
0.28638824
-0.0022602643
0.28638824
-0.0024351039
0.28638824
-0.0026099444
0.28638824
-0.0027847846
0.28638824
-0.0029596248
0.28638824
0.28638824
-0.003134465
4.8046396e-05
-0.0011026773
0.001080109
0.00010072126
-0.0017885538
0.0017595068
-0.0016764604
4.908467e-05
-0.0011245124
0.00010257504
-0.0018213685
-0.0016981011
4.987275e-05
-0.0011471799
0.00010400995
-0.0018533096
-0.0017207544
5.0766868e-05
-0.0011701228
0.00010555408
-0.0018886358
-0.0017432708
5.1614015e-05
-0.0011935666
0.00010701371
-0.0019233793
-0.0017643998
5.2485496e-05
-0.0012174665
0.0001084023
-0.0019586893
-0.0017843224
5.3323816e-05
-0.0012415242
0.00010968415
-0.0019938458
-0.0018024899
5.4134288e-05
-0.0012657252
0.00011085214
-0.0020286215
-0.0018187665
5.4903573e-05
-0.0012897952
0.00011190077
-0.002063478
-0.0018331323
5.5645478e-05
-0.0013141061
0.00011283785
-0.0020982246
-0.0018455249
5.6390036e-05
-0.0013396223
0.00011366632
-0.0021326344
-0.0018561299
5.72044e-05
-0.0013681065
0.00011437775
-0.0021664532
-0.0018650762
5.8123398e-05
-0.0014008669
0.00011493314
-0.002198999
-0.0018729832
5.9175357e-05
-0.0014432168
0.00011526034
-0.002228013
0.00014659338
-0.0018814339
-0.001531067
-0.013999393
-0.013733168
-0.0014911446
0.0018906924
-0.0019561284
-0.001008653
0.0018106894
-0.0020018666
-0.00041466257
0.0019274684
-0.0020179621
0.0002126079
0.0018952043
-0.0019316262
0.00058318754
0.0018187034
-0.0018269858
0.00044122376
0.0016921091
-0.0016934494
5.8058682e-05
0.0016214578
-0.0016460589
-0.00025053966
0.0015932343
-0.0016349497
-0.00034467296
0.0015949308
-0.0016446291
-0.00032462797
0.0016060692
-0.0016655937
-0.00025248054
0.0016192587
-0.0016891123
-0.00015633297
0.0016293802
-0.0017090684
-6.8889003e-05
0.0016356495
-0.0017187791
0.0015986681
-0.0016796781
-0.0015932264
0.0017319173
-0.0011583802
0.0016889046
-0.0006065003
0.001763701
-4.3483293e-05
0.0017613017
0.00033335158
0.0017365797
0.00029086845
0.0016442253
1.2187957e-05
0.0015799294
-0.00020596652
0.0015490219
-0.00027699448
0.0015434822
-0.00026658113
0.0015466568
-0.00022023507
0.0015523328
-0.00015313028
0.001555522
-8.0150394e-05
0.0015612754
0.0015275659
-0.0014336589
0.0016213335
-0.0010836089
0.0016441182
-0.00064713569
0.0016660334
-0.00023864545
0.0016541206
4.6167375e-05
0.0016327125
6.7370355e-05
0.0015683511
-8.5622572e-05
0.0015237763
-0.0001893754
0.0014987478
-0.00022717522
0.001490254
-0.00022285411
0.0014877379
-0.000199544
0.0014878327
-0.00015675832
0.0014859317
-9.2262355e-05
0.0014928266
0.0014618173
-0.0012471075
-0.00095350574
-0.00064404008
-0.00037521049
-0.00019088047
-0.00014339949
-0.00016694148
-0.00018153839
-0.00019096423
-0.00019262438
-0.00018955322
-0.00016477765
-0.00010381943
0.0013994774
-0.0029989507
0.016165692
0.0030408238
-0.016207565
-0.0029570776
0.016165692
-0.016207565
-0.0029152045
0.016165692
-0.016207565
-0.0028733313
0.016165692
-0.016207565
-0.0028314582
0.016165692
-0.016207565
-0.0027895851
0.016165692
-0.016207565
-0.002747712
0.016165692
-0.016207565
-0.0027058368
0.016165692
-0.016207565
-0.0026638875
0.016165696
-0.016207569
-0.002620608
0.016165823
-0.016207692
-0.0025412764
0.016166948
-0.016208799
-0.0022290949
0.016191932
-0.016232643
-0.0017938983
0.016336168
0.014912833
-0.0030008269
0.016125695
0.0030408237
-0.0029608301
0.016125695
-0.0029208332
0.016125695
-0.0028808363
0.016125695
-0.0028408394
0.016125695
-0.0028008426
0.016125695
-0.0027608456
0.016125695
-0.0027208464
0.016125695
-0.0026807707
0.016125699
-0.0026393362
0.016125833
-0.0025610568
0.016127013
-0.0022477031
0.016153285
-0.0018104119
0.016303309
0.014865899
-0.0030026731
0.016087544
0.0030408238
-0.0029645225
0.016087544
-0.0029263718
0.016087544
-0.0028882211
0.016087544
-0.0028500705
0.016087545
-0.0028119198
0.016087544
-0.002773769
0.016087544
-0.0027356162
0.016087545
-0.0026973848
0.016087548
-0.0026577721
0.016087689
-0.0025806709
0.016088933
-0.0022663695
0.016116592
-0.0018268674
0.016273002
0.014823378
-0.0030045714
-0.0029683191
-0.0029320667
0.016051292
-0.0028958144
0.016051292
-0.0028595619
0.016051292
-0.0028233096
0.016051292
-0.0027870572
0.016051292
-0.0027508025
0.016051292
-0.0027144681
0.016051296
-0.0026767329
0.016051444
-0.0026009233
0.016052755
-0.0022858856
0.01608184
-0.0018441011
0.016244701
0.014782443
-0.0029373418
-0.0029028479
0.016016798
-0.0028683539
0.016016798
-0.00283386
0.016016798
-0.0027993659
0.016016798
-0.0027648696
0.016016798
-0.0027302922
0.016016803
-0.002694297
0.016016957
-0.0026196732
0.016018332
-0.0023040151
0.016048946
-0.0018602402
0.016217895
0.014741847
-0.0029078149
-0.0028745628
0.015983546
-0.0028413105
0.015983546
-0.0028080583
0.015983546
-0.0027748037
0.015983546
-0.0027414671
0.015983551
-0.0027066994
0.015983711
-0.0026328458
0.015985148
-0.0023165981
0.016017536
-0.0018716621
0.016192189
0.01470389
-0.002877933
-0.0028453549
-0.0028127766
0.015950968
-0.002780196
0.015950968
-0.0027475329
0.015950973
-0.0027134316
0.015951139
-0.0026399438
0.015952636
-0.0023232416
0.015986866
-0.0018780978
0.016167638
0.0146708
-0.0028141084
-0.002781718
0.01591858
-0.0027492449
0.015918585
-0.0027153334
0.015918757
-0.0026419087
0.015920325
-0.002324842
0.015956068
-0.0018797346
0.016145114
0.0146496
-0.0027902103
-0.0027587987
0.015887259
-0.0027259483
0.015887438
-0.0026534575
0.015889094
-0.0023365509
0.015926046
-0.0018899781
0.016124257
0.014634491
-0.0027833865
-0.0027532559
0.01585885
-0.0026831089
0.015860581
-0.0023669532
0.015899055
-0.0019169455
0.016102975
0.014598649
-0.0027733281
-0.0027046551
0.015833995
-0.0023891588
0.015875337
-0.0019387251
0.016077587
0.014532167
-0.0026474857
-0.0023300821
0.015843692
-0.0018941411
0.016056943
0.014504663
-0.0022606665
-0.0018033641
0.016006378
0.013499987
-0.0022522134
-0.0038153405
-0.0037449302
-0.0036745199
-0.0036041088
-0.0035336976
-0.0034632873
-0.0033928762
-0.0033224659
-0.0032520556
-0.003181645
0.28631783
-0.0031112344
0.28631783
0.28631783
-0.003181645
-0.0031112345
0.28624742
-0.0017119814
1.763796e-05
-0.0017622644
2.9634796e-05
-0.0018163619
2.3402953e-05
-0.0018723154
1.5778644e-05
-0.0019386971
1.9756086e-05
-0.002008615
1.576597e-05
-0.0020746362
5.1476779e-06
-0.0021390108
3.5901075e-07
-0.0022043954
2.9038719e-06
-0.0022722289
1.491282e-05
-0.0023397579
3.4286158e-05
-0.0023978764
5.8612024e-05
-0.0024525589
0.00010842772
0.00017786571
-0.0025125555
-0.0017501119
5.5287985e-05
-0.0018027414
9.1571089e-05
-0.001866947
0.0001013161
-0.0019388826
0.00010784983
-0.0020187666
0.00012884855
-0.0021022548
0.00013932331
-0.0021860121
0.00014197004
-0.0022729156
0.00015626697
-0.0023636693
0.00018418858
-0.0024573403
0.00022491286
-0.0025556385
0.00027469288
-0.0026633316
0.00033173167
-0.0027859629
0.00041947741
0.00052834939
-0.0029095818
-0.0017405298
0.00010796287
-0.0017917875
0.00017338527
-0.0018551169
0.00020817701
-0.0019272593
0.00023877745
-0.0020071397
0.00028530006
-0.002090629
0.00032067515
-0.0021761025
0.00035010847
-0.0022676311
0.00039860114
-0.0023669933
0.00046539475
-0.0024730068
0.00054684618
-0.0025838906
0.00063733999
-0.0026980629
0.00073235463
-0.0028099647
0.00084676355
0.00096932446
-0.0029136885
-0.0017148322
0.00014547745
-0.0017607157
0.00023950084
-0.0018179715
0.00029377869
-0.0018830612
0.00033986874
-0.0019540797
0.00039999592
-0.0020267241
0.00044460595
-0.0020995361
0.0004810171
-0.0021765375
0.0005400342
-0.0022592025
0.00061868702
-0.0023458542
0.00070899621
-0.0024326999
0.00080175642
-0.0025147219
0.000887571
-0.0025819666
0.00097620137
0.0010557532
-0.002627776
-0.0016839552
0.00014362188
-0.001722328
0.00026188203
-0.0017708881
0.00032554562
-0.001825388
0.00037298374
-0.0018833841
0.00042796323
-0.001940658
0.00045902968
-0.0019958758
0.00047647521
-0.0020524672
0.00051677019
-0.0021113528
0.00057377467
-0.0021708458
0.0006356868
-0.0022272216
0.00069191005
-0.0022765738
0.00073331866
-0.0023152251
0.00076710213
0.0007826591
-0.0023403703
-0.0016539101
5.0956753e-05
-0.0016857255
0.00019931354
-0.0017266006
0.00027070263
-0.001771683
0.00031509552
-0.0018184096
0.00035793025
-0.0018625219
0.000366389
-0.0019025607
0.00035552882
-0.0019418539
0.00036609571
-0.0019816394
0.00038980572
-0.0020202215
0.00041299041
-0.0020554937
0.00042568842
-0.002086984
0.00042268107
-0.0021126156
0.00041230553
0.0003857987
-0.0021322756
-0.00163129
-0.00020335529
-0.0016575046
-2.2565496e-05
-0.0016931431
7.7850882e-05
-0.0017327658
0.00013876558
-0.0017737643
0.00018719391
-0.0018111976
0.00018839251
-0.0018432858
0.00016398771
-0.0018737252
0.00016367648
-0.001903953
0.00017595514
-0.0019330376
0.00018609229
-0.0019606931
0.00018577868
-0.0019875015
0.00017121245
-0.0020117039
0.00015378453
0.00013076118
-0.0020329395
-0.0016191139
-0.00056403453
-0.0016306923
-0.00039056014
-0.0016616294
-0.00028254603
-0.0016988557
-0.00019488202
-0.0017388589
-0.00011662606
-0.0017738845
-9.0071731e-05
-0.001801696
-9.5276421e-05
-0.0018276131
-7.9179556e-05
-0.0018538889
-5.1193447e-05
-0.0018809177
-2.481438e-05
-0.0019081567
-7.0304486e-06
-0.0019351078
-3.3878304e-07
-0.001960779
5.4169465e-06
5.5017898e-06
-0.0019853175
-0.0016252636
-0.00081034787
-0.0016042569
-0.00070183942
-0.001611597
-0.00061387066
-0.0016431588
-0.00051992207
-0.0016851388
-0.00041685533
-0.0017227614
-0.00036022102
-0.0017524211
-0.00034005911
-0.0017780431
-0.00030246424
-0.0018035451
-0.00025427993
-0.0018306179
-0.00020712171
-0.0018593299
-0.00016693302
-0.0018891677
-0.0001367344
-0.0019183214
-0.00011012976
-8.850756e-05
-0.0019470538
-0.0017375044
-0.00066339496
-0.0016637366
-0.00063455021
-0.0016276682
-0.0006427658
-0.0016259996
-0.00061510772
-0.001656978
-0.00053589331
-0.0016967225
-0.00047417302
-0.0017269616
-0.00044835601
-0.0017487464
-0.00040977514
-0.0017681582
-0.0003624404
-0.0017898235
-0.00031465524
-0.0018154547
-0.00026977441
-0.0018444121
-0.0002300042
-0.0018742684
-0.00019079405
-0.00015391767
-0.0019050279
-0.0018494882
-0.00027718496
-0.0017756544
-0.00027505741
-0.0017168831
-0.00031572274
-0.0016826662
-0.0003600433
-0.0016887894
-0.000351819
-0.0017158024
-0.00033697336
-0.001741646
-0.00034266092
-0.0017609694
-0.0003266115
-0.0017749747
-0.00029965221
-0.0017878518
-0.00027194186
-0.0018046491
-0.00024491914
-0.0018275495
-0.00021883069
-0.0018547748
-0.0001889657
-0.00015648101
-0.0018864089
-0.0019893467
0.00014021127
-0.0019355826
0.00018992631
-0.0018697906
0.00018327379
-0.001815727
0.00012999815
-0.0017891005
0.00010030658
-0.0018128698
5.5384158e-05
-0.0018362986
1.1492769e-06
-0.001852381
-8.7024196e-06
-0.0018580129
-8.3033781e-06
-0.0018577186
-1.1745529e-05
-0.0018578766
-2.0455537e-05
-0.0018620831
-3.2141282e-05
-0.0018703533
-4.1079277e-05
-4.5692783e-05
-0.0018819191
-0.0019699659
0.0002164991
-0.0019272462
0.00032804344
-0.0018870729
0.00034107473
-0.0018554209
0.0003023266
-0.0018324611
0.00028380444
-0.001842785
0.00024368889
-0.0018660889
0.00018776989
-0.0018879173
0.00016561711
-0.0019039716
0.00015698728
-0.0019099538
0.00014409118
-0.0019099537
0.0001237772
-0.0019113293
9.8110286e-05
-0.0019146693
7.2211681e-05
5.0456427e-05
-0.0019189295
-0.0019859534
-0.0019114565
-0.0018449555
-0.0017938279
-0.0017389808
-0.0017260174
-0.0017608238
-0.0017981525
-0.0018253125
-0.0018389529
-0.0018429636
-0.0018456759
-0.0018501551
-0.0018541476
0.0016631935
-1.6676196e-05
0.002563129
-0.00038599113
-0.001201206
0.0017791105
-0.0017144059
0.0028400418
-0.0025517686
-0.0015339894
0.002345829
-0.002402958
-0.001594671
0.0024602028
-0.0025283966
-0.0015365781
0.0024879964
-0.0025406134
-0.0014614069
0.002490145
-0.0025448795
-0.0013347701
0.0025372972
-0.0025785079
-0.0011088851
0.0026342271
-0.0026526818
-0.00080507797
0.0027695348
-0.0027774225
-0.00050661843
0.0028832888
-0.0029542078
-0.00026437364
0.0029262553
-0.0030251632
-0.0001336086
0.0028905024
-0.0030062911
0.0025411529
-0.0027659427
-1.2347499e-05
0.0034282374
-0.00078111431
-4.4759909e-05
-0.0016143361
0.0029211708
-0.0014737406
0.0022844639
-0.0016131672
0.0023977944
-0.0015408456
0.0024202923
-0.0014410815
0.0024213185
-0.0012689799
0.0024775263
-0.00097752506
0.0025912125
-0.00059996269
0.0027467135
-0.0002445491
0.0028709013
7.6995833e-05
0.0028728359
0.00020136801
0.0029157285
0.0025372719
0.00053060823
0.004043649
-0.00050855368
0.00045130713
-0.0012806905
0.0029211996
-0.0012239941
0.0022917309
-0.0014413127
0.0023416884
-0.0013756966
0.0023594435
-0.0012685132
0.002358659
-0.001067303
0.0024187848
-0.000741589
0.0025314395
-0.00033741092
0.0026782768
-7.1689599e-06
0.0027974008
0.00032629187
0.0027776
0.00040404193
0.0028621808
0.0024668099
0.0010121701
0.0045335853
-0.00016416156
0.0010854567
-0.00088110215
0.0029176681
-0.00093040618
0.0023638094
-0.0012023353
0.002298818
-0.001153441
0.002311358
-0.0010514906
0.0023075657
-0.0008427974
0.0023666729
-0.00051919947
0.0024688818
-0.00012622259
0.0025926972
0.00017614542
0.0026893628
0.00042361445
0.0026103866
0.0004935142
0.0026954409
0.0023388117
0.0014570224
0.0048733622
0.00031978301
0.0017829526
-0.00049428709
0.0028909429
-0.00068639003
0.0024558221
-0.00098606382
0.0022746266
-0.00096004831
0.0022750925
-0.00086826811
0.0022662779
-0.0006654284
0.0023206247
-0.0003626358
0.0024089103
-4.1153282e-06
0.0025071763
0.00024415149
0.0025870408
0.0004128611
0.0024561758
0.00047259114
0.0025280565
0.0022062488
0.0018109614
0.0048831468
0.00082320406
0.0024873368
-4.4516555e-05
0.0028914181
-0.00038348342
0.002548346
-0.00077241793
0.0022656449
-0.00077672075
0.0022506224
-0.00070058189
0.0022342443
-0.00051264507
0.0022808367
-0.00024070841
0.0023536759
0.00010261871
0.0024274073
0.00027212127
0.0024988968
0.00035440218
0.002333684
0.00038809179
0.0023798666
0.0020933871
0.0019760795
0.0046591343
0.0011008611
0.0030745255
0.00046739367
0.0030124121
-5.1816634e-05
0.0026384531
-0.00057061654
0.0022774718
-0.00060871196
0.0022368554
-0.00055343295
0.0022079048
-0.00038450357
0.0022447016
-0.00014639213
0.0023012785
0.00017400321
0.0023514248
0.00027837363
0.0024161
0.00028204233
0.0022340438
0.00027894589
0.002252602
0.0020060655
0.0020010606
0.004211154
0.0014733383
0.0035251152
0.00094517614
0.0031810751
0.00026705216
0.0026978689
-0.00034617174
0.0023115054
-0.0004469208
0.0022309572
-0.00042168254
0.0021861032
-0.00027585019
0.0022104077
-7.4496679e-05
0.0022499891
0.00021321267
0.0022773457
0.00027737535
0.0023329229
0.00020548907
0.0021490186
0.00016717733
0.0021428687
0.001943272
0.0018704483
0.0037019454
0.001764693
0.0038016627
0.0013739298
0.0033407193
0.0005982149
0.0027620808
-8.8080439e-05
0.0023535507
-0.00028910383
0.0022278465
-0.0003051222
0.0021672718
-0.00019075885
0.002175986
-2.7823915e-05
0.0021979943
0.00021785646
0.0022048414
0.00025509339
0.0022474731
0.00012553229
0.0020733946
6.6890212e-05
0.0020530076
0.0019015091
0.0015454499
0.0032917296
0.0019636458
0.0037898871
0.0017638428
0.0034065846
0.00099229002
0.0028246739
0.00020007526
0.0024039953
-0.00013197114
0.0022256309
-0.00020031354
0.0021464975
-0.00012405849
0.0021397762
-4.5853091e-06
0.0021444991
0.00018421795
0.0021331649
0.00020847089
0.0021606956
4.974548e-05
0.0020052797
-2.2642413e-06
0.0019879219
0.0018759547
0.0011976689
0.0029891781
0.0018595556
0.0036139654
0.0020072004
0.0033928211
0.0013915941
0.0028135819
0.00055230699
0.0024650911
5.5890142e-05
0.0022255081
-8.7021105e-05
0.0021245499
-5.8250537e-05
0.0021032232
7.6077186e-06
0.0020919919
0.00013401075
0.0020658355
0.00014528139
0.0020776984
-7.7435221e-06
0.0019511592
-3.6420534e-05
0.0019486707
0.0018627093
0.00087028455
0.0027898508
0.0016217923
0.0033741767
0.002066507
0.0032945116
0.0016706229
0.002783798
0.00088830235
0.0024740855
0.00024360891
0.0022141636
1.5220934e-05
0.0021000213
-1.0961363e-05
0.0020650757
-5.2332404e-06
0.0020401321
5.4364529e-05
0.0020040964
5.002773e-05
0.00200176
-5.0445568e-05
0.0019143793
-3.4865486e-05
0.0019290344
0.0018593436
0.000614316
0.0026289964
0.0013370908
0.0031336818
0.0019727459
0.0031214411
0.0018187585
0.0027306162
0.0011530205
0.0024243517
0.00044634804
0.0021854872
0.00012069754
0.0020725524
2.9163415e-05
0.0020270874
-2.9956141e-05
0.0019922812
-4.690411e-05
0.0019512977
-5.6734095e-05
0.0019378238
-6.9484174e-05
0.0018943193
-2.1909079e-06
0.0019216563
0.0018576019
0.00039677358
0.0010234275
0.0017474783
0.0018131392
0.0012969747
0.00060863334
0.00021170772
4.8243439e-05
-7.9272176e-05
-0.00016526687
-0.00018279156
-7.5739994e-05
5.5338662e-05
-0.01238136
-0.001215836
0.011450385
-0.015759092
-0.0023539762
-0.015545491
-0.0019910679
-0.017074244
-0.002385503
-0.017320756
-0.00235962
-0.017513245
-0.0023738519
-0.017683619
-0.0023753826
-0.017813834
-0.0023852169
-0.017850239
-0.0024015556
-0.017794232
-0.0024245628
-0.017592234
-0.0024554113
-0.017332025
-0.0024953366
-0.01698543
-0.0025354749
-0.0024894312
-0.016442269
-0.016324106
-0.0021585754
0.016495368
-0.016711005
-0.0021636211
-0.016953082
-0.0022008059
-0.01716726
-0.0022036186
-0.017340389
-0.0022064463
-0.017506209
-0.0022064491
-0.017670165
-0.002206649
-0.017834571
-0.0022072891
-0.017999927
-0.002209324
-0.018165347
-0.0022138506
-0.018327473
-0.0022232689
-0.018467293
-0.0022431643
-0.018531167
-0.0022679293
-0.0022875055
-0.018480338
-0.016664285
-0.0020377743
0.016496177
-0.016834667
-0.0020392216
-0.017008532
-0.0020402333
-0.017176168
-0.0020403039
-0.017342788
-0.0020403419
-0.017509001
-0.0020403713
-0.017675156
-0.0020403976
-0.017841196
-0.0020404823
-0.0180067
-0.0020406533
-0.018171071
-0.0020409974
-0.018333983
-0.0020416939
-0.018494539
-0.002042973
-0.018651256
-0.0020450562
-0.0020482026
-0.01879897
-0.016677588
-0.0018740879
0.016511439
-0.016843992
-0.0018741654
-0.01701036
-0.0018741594
-0.017176614
-0.0018741685
-0.017342813
-0.001874168
-0.017509006
-0.0018741686
-0.017675198
-0.0018741702
-0.017841391
-0.0018741753
-0.018007586
-0.00187419
-0.018173777
-0.0018742255
-0.018339922
-0.001874296
-0.018505878
-0.0018744101
-0.018671265
-0.0018745538
-0.0018746815
-0.018835629
-0.016678043
-0.0017079757
0.016511858
-0.01684424
-0.0017079762
-0.017010433
-0.0017079769
-0.017176625
-0.0017079767
-0.017342817
-0.0017079768
-0.017509009
-0.0017079768
-0.0176752
-0.0017079769
-0.017841391
-0.0017079771
-0.018007582
-0.0017079777
-0.018173772
-0.0017079791
-0.018339962
-0.0017079826
-0.018506147
-0.0017079891
-0.018672312
-0.0017079993
-0.0017080094
-0.018838424
-0.016678051
-0.0015417853
0.01651186
-0.016844243
-0.0015417853
-0.017010434
-0.0015417853
-0.017176626
-0.0015417853
-0.017342817
-0.0015417853
-0.017509009
-0.0015417853
-0.0176752
-0.0015417853
-0.017841392
-0.0015417854
-0.018007583
-0.0015417853
-0.018173775
-0.0015417854
-0.018339966
-0.0015417855
-0.018506157
-0.0015417857
-0.018672348
-0.001541786
-0.0015417863
-0.018838537
-0.016678051
-0.0013755938
0.01651186
-0.016844243
-0.0013755937
-0.017010434
-0.0013755938
-0.017176626
-0.0013755938
-0.017342817
-0.0013755938
-0.017509009
-0.0013755937
-0.0176752
-0.0013755938
-0.017841392
-0.0013755938
-0.018007583
-0.0013755937
-0.018173775
-0.0013755938
-0.018339966
-0.0013755938
-0.018506158
-0.0013755938
-0.018672349
-0.0013755938
-0.0013755939
-0.01883854
-0.016678051
-0.0012094024
0.01651186
-0.016844243
-0.0012094023
-0.017010434
-0.0012094023
-0.017176626
-0.0012094024
-0.017342817
-0.0012094023
-0.017509009
-0.0012094023
-0.0176752
-0.0012094024
-0.017841392
-0.0012094023
-0.018007583
-0.0012094023
-0.018173775
-0.0012094024
-0.018339966
-0.0012094023
-0.018506158
-0.0012094023
-0.018672349
-0.0012094024
-0.0012094023
-0.01883854
-0.016678051
-0.0010432108
0.01651186
-0.016844243
-0.0010432108
-0.017010434
-0.0010432108
-0.017176626
-0.0010432108
-0.017342817
-0.0010432108
-0.017509009
-0.0010432108
-0.0176752
-0.0010432108
-0.017841392
-0.0010432108
-0.018007583
-0.0010432108
-0.018173775
-0.0010432108
-0.018339966
-0.0010432108
-0.018506158
-0.0010432108
-0.018672349
-0.0010432108
-0.0010432108
-0.01883854
-0.016678051
-0.00087701931
0.01651186
-0.016844243
-0.00087701939
-0.017010434
-0.0008770194
-0.017176626
-0.00087701931
-0.017342817
-0.00087701939
-0.017509009
-0.00087701931
-0.0176752
-0.00087701939
-0.017841392
-0.00087701931
-0.018007583
-0.00087701939
-0.018173775
-0.00087701931
-0.018339966
-0.00087701939
-0.018506158
-0.00087701931
-0.018672349
-0.0008770194
-0.00087701939
-0.01883854
-0.016678051
-0.00071082786
0.01651186
-0.016844243
-0.00071082786
-0.017010434
-0.00071082794
-0.017176626
-0.00071082786
-0.017342817
-0.00071082785
-0.017509009
-0.00071082786
-0.0176752
-0.00071082786
-0.017841392
-0.00071082786
-0.018007583
-0.00071082794
-0.018173775
-0.00071082786
-0.018339966
-0.00071082786
-0.018506158
-0.00071082785
-0.018672349
-0.00071082786
-0.00071082786
-0.018838541
-0.016678051
-0.00054463641
0.01651186
-0.016844243
-0.0005446364
-0.017010434
-0.00054463641
-0.017176626
-0.0005446364
-0.017342817
-0.00054463632
-0.017509009
-0.0005446364
-0.0176752
-0.0005446364
-0.017841392
-0.00054463641
-0.018007583
-0.00054463632
-0.018173775
-0.00054463641
-0.018339966
-0.0005446364
-0.018506157
-0.00054463641
-0.018672349
-0.0005446364
-0.00054463632
-0.01883854
-0.016678051
-0.00037844487
0.01651186
-0.016844243
-0.00037844487
-0.017010434
-0.00037844495
-0.017176626
-0.00037844487
-0.017342817
-0.00037844495
-0.017509009
-0.00037844487
-0.0176752
-0.00037844487
-0.017841392
-0.00037844495
-0.018007583
-0.00037844487
-0.018173775
-0.00037844495
-0.018339966
-0.00037844487
-0.018506158
-0.00037844487
-0.018672349
-0.00037844495
-0.00037844487
-0.01883854
-0.016678051
0.01651186
-0.00021225342
-0.016844243
-0.00021225342
-0.017010434
-0.00021225342
-0.017176626
-0.00021225342
-0.017342817
-0.00021225342
-0.017509009
-0.00021225342
-0.0176752
-0.00021225342
-0.017841392
-0.00021225342
-0.018007583
-0.00021225342
-0.018173775
-0.00021225342
-0.018339966
-0.00021225342
-0.018506158
-0.00021225342
-0.018672349
-0.00021225342
-0.00021225342
-0.01883854
-0.0020960788
-0.016390507
-0.0022048312
-0.015487971
-0.0022341348
-0.01553529
-0.0017996796
-0.015529745
-0.0013503297
-0.015529952
-0.00089985696
-0.015529953
-0.00044937268
-0.015529953
1.1117177e-06
-0.015529953
0.0004515962
-0.015529953
0.0009020806
-0.015529953
0.001352565
-0.015529953
0.0018030494
-0.015529953
0.0022535339
-0.015529953
-0.015529953
0.0027040183
-0.0021256263
-0.015871267
-0.0022033258
-0.015929123
-0.0022020021
-0.015973258
-0.0017723753
-0.015977396
-0.0013254266
-0.015977666
-0.00087771788
-0.01597767
-0.00043000096
-0.01597767
1.7716113e-05
-0.01597767
0.0004654331
-0.01597767
0.00091315017
-0.01597767
0.0013608672
-0.01597767
0.0018085842
-0.01597767
0.0022563012
-0.01597767
-0.01597767
0.0027040183
-0.0022585158
-0.003362259
-0.0031501929
-0.0026375914
-0.002103691
-0.0015695018
-0.0010353118
-0.00050112175
3.306819e-05
0.00056725823
0.0011014483
0.0016356383
0.0021698283
0.0027040183
0.00030589463
0.28780565
0.28780565
0.00030589463
0.28781189
0.00029965188
0.28781189
0.00029340914
0.28781189
0.28781189
0.00030589463
0.28781814
0.00029965189
0.28781814
0.00029340914
0.28781814
0.00028716639
0.28781814
0.28781814
0.00030589463
0.28782438
0.00029965189
0.28782438
0.00029340914
0.28782438
0.00028716639
0.28782438
0.00028092364
0.28782438
0.00027468089
0.28782438
0.28782438
0.00030589463
0.28783062
0.00029965188
0.28783062
0.00029340914
0.28783062
0.00028716639
0.28783062
0.00028092364
0.28783062
0.00027468089
0.28783062
0.00026843814
0.28783062
0.28783062
0.00030589463
0.28783686
0.00029965189
0.28783686
0.00029340914
0.28783686
0.00028716639
0.28783686
0.00028092364
0.28783686
0.00027468089
0.28783686
0.00026843815
0.28783686
0.0002621954
0.28783686
0.00025595265
0.28783686
0.28783686
0.00030589463
0.28784311
0.00029965188
0.28784311
0.00029340914
0.28784311
0.00028716639
0.28784311
0.00028092364
0.28784311
0.00027468089
0.28784311
0.00026843814
0.28784311
0.0002621954
0.28784311
0.00025595265
0.28784311
0.0002497099
0.28784311
0.28784311
0.00030589463
0.28784935
0.00029965189
0.28784935
0.00029340914
0.28784935
0.00028716639
0.28784935
0.00028092364
0.28784935
0.00027468089
0.28784935
0.00026843814
0.28784935
0.0002621954
0.28784935
0.00025595265
0.28784935
0.00024970991
0.28784935
0.00024346715
0.28784935
0.28784935
0.00030589463
0.28785559
0.00029965188
0.28785559
0.00029340914
0.28785559
0.00028716639
0.28785559
0.00028092364
0.28785559
0.00027468089
0.28785559
0.00026843815
0.28785559
0.0002621954
0.28785559
0.00025595265
0.28785559
0.0002497099
0.28785559
0.00024346716
0.28785559
0.00023722441
0.28785559
0.28785559
0.00030589463
0.28786184
0.00029965189
0.28786183
0.00029340914
0.28786184
0.00028716639
0.28786184
0.00028092364
0.28786184
0.00027468089
0.28786183
0.00026843814
0.28786184
0.0002621954
0.28786184
0.00025595265
0.28786183
0.0002497099
0.28786184
0.00024346716
0.28786184
0.00023722441
0.28786184
0.00023098166
0.28786184
0.28786184
0.00030589463
0.28786808
0.00029965189
0.28786808
0.00029340914
0.28786808
0.00028716639
0.28786808
0.00028092364
0.28786808
0.00027468089
0.28786808
0.00026843815
0.28786808
0.0002621954
0.28786808
0.00025595265
0.28786808
0.0002497099
0.28786808
0.00024346715
0.28786808
0.00023722441
0.28786808
0.00023098166
0.28786808
0.28786808
0.00022473892
0.00030589463
0.28787432
0.00029965188
0.28787432
0.00029340914
0.28787432
0.00028716639
0.28787432
0.00028092364
0.28787432
0.00027468089
0.28787432
0.00026843814
0.28787432
0.0002621954
0.28787432
0.00025595265
0.28787432
0.0002497099
0.28787432
0.00024346716
0.28787432
0.00023722441
0.28787432
0.00023098166
0.28787432
0.28787432
0.00022473891
0.00030589463
0.28788056
0.00029965189
0.28788056
0.00029340914
0.28788056
0.00028716639
0.28788056
0.00028092364
0.28788056
0.00027468089
0.28788056
0.00026843815
0.28788056
0.0002621954
0.28788056
0.00025595265
0.28788056
0.0002497099
0.28788056
0.00024346716
0.28788056
0.00023722441
0.28788056
0.00023098166
0.28788056
0.28788056
0.00022473892
0.00030589463
0.28788681
0.00029965188
0.28788681
0.00029340914
0.28788681
0.00028716639
0.28788681
0.00028092364
0.28788681
0.00027468089
0.28788681
0.00026843814
0.28788681
0.0002621954
0.28788681
0.00025595265
0.28788681
0.0002497099
0.28788681
0.00024346716
0.28788681
0.00023722441
0.28788681
0.00023098166
0.28788681
0.28788681
0.00022473891
-0.00022161754
0.28789617
-0.00023098166
0.28789617
-0.00024034578
0.28789617
-0.00024970991
0.28789617
-0.00025907403
0.28789617
-0.00026843815
0.28789617
-0.00027780227
0.28789617
-0.00028716639
0.28789617
-0.00029653051
0.28789617
-0.00030589463
0.28789617
-0.00031525876
0.28789617
-0.00032462288
0.28789617
-0.000333987
0.28789617
0.28789617
-0.00022161754
0.28790553
-0.00023098166
0.28790553
-0.00024034578
0.28790553
-0.0002497099
0.28790553
-0.00025907402
0.28790553
-0.00026843814
0.28790553
-0.00027780227
0.28790553
-0.00028716639
0.28790553
-0.00029653051
0.28790553
-0.00030589463
0.28790553
-0.00031525875
0.28790553