/*--------------------------------*- C++ -*----------------------------------*\
| =========                 |                                                 |
| \\      /  F ield         | OpenFOAM: The Open Source CFD Toolbox           |
|  \\    /   O peration     | Version:  2206                                  |
|   \\  /    A nd           | Website:  www.openfoam.com                      |
|    \\/     M anipulation  |                                                 |
\*---------------------------------------------------------------------------*/
FoamFile
{
    version     2.0;
    format      ascii;
    arch        "LSB;label=32;scalar=64";
    class       volScalarField;
    location    "0.02";
    object      rho;
}
// * * * * * * * * * * * * * * * * * * * * * * * * * * * * * * * * * * * * * //

dimensions      [1 -3 0 0 0 0 0];

internalField   nonuniform List<scalar> 
1396
(
0.99999904
0.99999904
0.99999904
0.99999904
0.99999904
0.99999904
0.99999904
0.99999904
0.99999904
0.99999904
0.99999904
0.99999904
0.99999904
0.99999904
0.99999904
0.99999904
0.99999904
0.99999904
0.99999904
0.99999904
0.99999904
0.99999904
0.99999904
0.99999904
0.99999904
0.99999904
0.99999904
0.99999904
0.99999904
0.99999904
0.99999904
0.99999904
0.99999904
0.99999904
0.99999904
0.99999904
0.99999904
0.99999904
0.99999904
0.99999904
0.99999904
0.99999904
0.99999904
0.99999904
0.99999904
0.99999904
0.99999904
0.99999904
0.99999904
0.99999904
0.99999904
0.99999904
0.99999904
0.99999904
0.99999904
0.99999904
0.99999904
0.99999904
0.99999904
0.99999904
0.99999904
0.99999904
0.99999904
0.99999904
0.99999904
0.99999904
0.99999904
0.99999904
0.99999904
0.99999904
0.99999904
0.99999904
0.99999904
0.99999904
0.99999904
0.99999904
0.99999904
0.99999904
0.99999904
0.99999904
0.99999904
0.99999904
0.99999904
0.99999904
0.99999904
0.99999904
0.99999904
0.99999904
0.99999904
0.99999904
0.99999904
0.99999904
0.99999904
0.99999904
0.99999904
0.99999904
0.99999904
0.99999904
0.436292
0.80413291
0.94716606
0.44023749
0.81499239
0.95406921
0.44047169
0.82404249
0.95925051
0.44231171
0.83403188
0.96541001
0.4431131
0.84402964
0.97099252
0.44445955
0.85408677
0.97603115
0.44532521
0.86381689
0.98031812
0.44571805
0.87321705
0.98374216
0.44521208
0.88230413
0.9861988
0.4441185
0.89122352
0.98771283
0.44383888
0.90000792
0.98836884
0.4476344
0.90854272
0.98819238
0.45854604
0.91648442
0.98696565
0.47834544
0.92329774
0.98452649
0.97835133
1.0136274
0.98130705
1.0220099
0.98607873
1.0740208
1.0881675
1.0714743
1.0396466
1.0190788
1.0036923
0.99307983
0.98414497
0.97663836
0.97031225
0.96848209
0.96031978
0.92044315
0.91922589
1.0067897
1.0239056
1.0271128
1.0175242
1.0077294
0.99647613
0.98502814
0.97437318
0.9657986
0.95888255
0.95927928
0.95370158
0.9646217
0.95870717
0.9825824
0.98910666
0.99667333
0.99936639
0.99654193
0.98762739
0.97530349
0.96334562
0.95423569
0.94706617
0.95018523
0.94717835
0.977758
0.97820844
0.98201622
0.98510566
0.98968562
0.99233228
0.98900341
0.9789191
0.96497069
0.95176224
0.94251305
0.93516339
0.94114844
0.93921345
0.93017753
0.99999904
0.99999904
0.99999904
0.99999904
0.99999904
0.99999904
0.99999904
0.99999904
0.99999902
0.99999851
0.99995991
0.99952918
0.99644534
0.90869617
0.99999904
0.99999904
0.99999904
0.99999904
0.99999904
0.99999904
0.99999904
0.99999904
0.99999902
0.99999852
0.99995931
0.99952587
0.99640981
0.90776162
0.99999904
0.99999904
0.99999904
0.99999904
0.99999904
0.99999904
0.99999904
0.99999904
0.99999902
0.99999852
0.99995881
0.99952348
0.99637806
0.90688508
0.99999904
0.99999904
0.99999904
0.99999904
0.99999904
0.99999904
0.99999904
0.99999904
0.99999902
0.99999851
0.99995828
0.99952062
0.99634533
0.90600503
0.99999904
0.99999904
0.99999904
0.99999904
0.99999904
0.99999904
0.99999902
0.99999851
0.99995777
0.99951767
0.99631693
0.90517921
0.99999904
0.99999904
0.99999904
0.99999904
0.99999904
0.99999902
0.99999851
0.99995738
0.99951548
0.99630279
0.90457481
0.99999904
0.99999904
0.99999904
0.99999904
0.99999902
0.99999851
0.99995718
0.99951486
0.99630277
0.904245
0.99999904
0.99999904
0.99999902
0.99999852
0.99995721
0.99951631
0.99631077
0.90417847
0.99999904
0.99999902
0.99999852
0.9999572
0.99951735
0.99629343
0.90385634
0.99999902
0.99999851
0.99995675
0.9995128
0.99623789
0.90282354
0.99999851
0.99995593
0.99950919
0.99621055
0.90180176
0.9999569
0.99951909
0.99640202
0.90327254
0.99954328
0.99645941
0.91043583
0.99696758
0.88564653
0.99999904
0.99999904
0.99999904
0.99999904
0.99999904
0.99999904
0.99999904
0.99999904
0.99999904
0.99999904
0.99999904
0.99999904
0.99999904
0.99999904
0.99999904
0.99999904
0.96672096
0.97366026
0.98188827
0.98743988
0.98898707
0.9909949
0.99476723
0.99918351
1.0034664
1.0077831
1.0132731
1.0195819
1.024715
1.0323344
0.97655153
0.98352855
0.99028583
0.99604476
1.0009552
1.0063779
1.013076
1.0210098
1.0299405
1.0397664
1.0506968
1.0631976
1.0782248
1.0970682
0.97941468
0.98722587
0.99395328
0.9999613
1.0057049
1.0119912
1.0190822
1.0269878
1.0356042
1.0449487
1.0551031
1.066412
1.079602
1.0952347
0.98490268
0.99171095
0.99747932
1.0025967
1.0074354
1.012313
1.0173376
1.022554
1.0280419
1.0339265
1.0402484
1.0469379
1.0540984
1.0611888
0.9907586
0.99566804
0.99971188
1.0032287
1.0064537
1.0094733
1.0123976
1.0153599
1.0184201
1.0216571
1.0250969
1.0286949
1.0323923
1.0359029
0.99761088
0.99984346
1.0018099
1.0034363
1.0049167
1.0063024
1.0076365
1.0089754
1.0103492
1.0117432
1.0131041
1.0143504
1.0154641
1.0163607
1.0072081
1.0065839
1.0067051
1.0064244
1.0063165
1.0064319
1.0066489
1.006851
1.0070335
1.0071754
1.0072662
1.0073388
1.0073559
1.0071978
1.0235694
1.0220295
1.0210847
1.0183447
1.0156407
1.0137516
1.0124452
1.0112363
1.0100731
1.0090236
1.0081116
1.0072197
1.0063107
1.0054028
1.0503232
1.0471752
1.0458284
1.04145
1.0365973
1.031743
1.0275747
1.0245702
1.0222321
1.0199915
1.0176572
1.015296
1.0130712
1.0110606
1.0986493
1.1060426
1.1048982
1.0954993
1.0828025
1.0725252
1.0638786
1.0568506
1.0510593
1.0458011
1.040651
1.0354996
1.030534
1.0259646
1.1235266
1.1383167
1.1477684
1.1464518
1.1354507
1.1182286
1.1006285
1.0886542
1.0809627
1.0746071
1.0678242
1.0604264
1.0529234
1.0458757
1.1298175
1.1773721
1.2030382
1.2090521
1.2015328
1.1814769
1.1557037
1.1383486
1.1270608
1.1177827
1.108236
1.097758
1.0863702
1.0744819
1.0834855
1.127472
1.1603343
1.1769989
1.1834415
1.1699297
1.1465879
1.1284469
1.1168993
1.1094922
1.1033645
1.0960655
1.087059
1.0765828
0.9771812
1.0762437
1.1106635
1.1407027
1.1547768
1.1482769
1.1240436
1.1044596
1.0940413
1.0900629
1.0874069
1.0830762
1.0762836
1.067336
2.4695841
0.65533714
1.305584
0.95898314
1.0057553
0.99957939
0.99985922
0.99914848
0.99548344
0.98239189
0.95135519
0.90810594
0.86891441
0.78498301
1.994931
0.76648618
1.2964943
0.96393367
1.0070575
0.99965281
0.99995368
0.9995987
0.99720941
0.98533099
0.95313015
0.90371136
0.87056581
0.78417296
1.8755849
0.83829664
1.2739207
0.97499744
1.0076506
0.99978854
0.99992385
0.99952404
0.99727001
0.98632256
0.95749816
0.91379396
0.89899539
0.81743752
1.7611446
0.94469193
1.2533077
0.99078044
1.0077088
0.99996815
0.99986975
0.99929913
0.99657442
0.98569771
0.9599867
0.92065215
0.91523112
0.84882827
1.6931751
1.0570478
1.2319518
1.0066319
1.0082976
1.0002037
0.99984207
0.99908982
0.99587322
0.98484665
0.96187309
0.92416472
0.92646631
0.87482818
1.6116238
1.1713923
1.2091819
1.0211623
1.0103663
1.0005689
0.99985886
0.99893315
0.9954418
0.98457551
0.96446374
0.9286896
0.93483187
0.89826525
1.5132147
1.2517902
1.216145
1.0355187
1.0148049
1.0012467
0.99996655
0.99888653
0.99545888
0.98526249
0.96858233
0.93611056
0.9439476
0.92026151
1.406921
1.3076469
1.2274275
1.0498205
1.0213082
1.0024871
1.0002457
0.99900436
0.99597013
0.98719241
0.97457064
0.94633179
0.95539675
0.94163746
1.3026028
1.3277357
1.2300009
1.0660863
1.0278313
1.0046402
1.0007982
0.99932407
0.99698557
0.99026396
0.98211029
0.95964238
0.96932335
0.96289816
1.2192189
1.3090178
1.2226935
1.0791732
1.0335103
1.0076439
1.0016133
0.9998549
0.99849965
0.99439782
0.99109991
0.97606754
0.98557572
0.98342176
1.150009
1.265187
1.2065556
1.0817262
1.0408847
1.0109447
1.0028074
1.0005982
1.0004707
0.99971675
1.0015086
0.99483839
1.0030332
1.0033945
1.1031415
1.2153771
1.1813932
1.0797404
1.044658
1.0138537
1.0040876
1.0015665
1.0028519
1.0057245
1.0125755
1.0151685
1.0212291
1.0212966
1.0669284
1.166477
1.1499541
1.0763097
1.0431659
1.0160103
1.0058913
1.0029679
1.0055606
1.0124143
1.0239075
1.0355471
1.0397519
1.0380935
1.0472571
1.1260941
1.1195545
1.0709596
1.0401702
1.0169019
1.006648
1.0041041
1.0083506
1.0191514
1.0350901
1.0549047
1.0574144
1.0494563
1.0342586
1.1378387
0.97130189
1.0110641
0.99888385
1.0001398
1.0000019
1.0001588
1.0006922
1.0038797
1.0087361
1.0053345
0.98403991
0.95029754
1.0171169
0.99701588
1.0030859
0.99957751
1.000113
0.99998767
1.0000091
1.0000183
1.0000209
0.99998392
0.99999801
1.0001667
1.0002132
0.99900854
0.99987228
1.0003157
0.99994598
1.0000273
0.99999521
0.99999987
0.99999935
1.000001
1.0000052
1.0000129
1.0000198
0.99999594
0.99990366
0.99970693
0.99999957
0.99999753
1.0000015
0.99999858
0.99999922
0.99999902
0.99999906
0.99999903
0.99999899
0.99999906
0.99999984
1.0000017
1.0000023
0.99999227
0.99999921
0.99999904
0.99999903
0.99999906
0.99999904
0.99999904
0.99999904
0.99999904
0.99999904
0.99999903
0.999999
0.99999895
0.99999894
0.99999893
0.99999904
0.99999904
0.99999904
0.99999904
0.99999904
0.99999904
0.99999904
0.99999904
0.99999904
0.99999904
0.99999904
0.99999904
0.99999903
0.99999902
0.99999904
0.99999904
0.99999904
0.99999904
0.99999904
0.99999904
0.99999904
0.99999904
0.99999904
0.99999904
0.99999904
0.99999904
0.99999904
0.99999904
0.99999904
0.99999904
0.99999904
0.99999904
0.99999904
0.99999904
0.99999904
0.99999904
0.99999904
0.99999904
0.99999904
0.99999904
0.99999904
0.99999904
0.99999904
0.99999904
0.99999904
0.99999904
0.99999904
0.99999904
0.99999904
0.99999904
0.99999904
0.99999904
0.99999904
0.99999904
0.99999904
0.99999904
0.99999904
0.99999904
0.99999904
0.99999904
0.99999904
0.99999904
0.99999904
0.99999904
0.99999904
0.99999904
0.99999904
0.99999904
0.99999904
0.99999904
0.99999904
0.99999904
0.99999904
0.99999904
0.99999904
0.99999904
0.99999904
0.99999904
0.99999904
0.99999904
0.99999904
0.99999904
0.99999904
0.99999904
0.99999904
0.99999904
0.99999904
0.99999904
0.99999904
0.99999904
0.99999904
0.99999904
0.99999904
0.99999904
0.99999904
0.99999904
0.99999904
0.99999904
0.99999904
0.99999904
0.99999904
0.99999904
0.99999904
0.99999904
0.99999904
0.99999904
0.99999904
0.99999904
0.99999904
0.99999904
0.99999904
0.99999904
0.99999904
0.99999904
0.99999904
0.99999904
0.99999904
0.99999904
0.99999904
0.99999904
0.99999904
0.99999904
0.99999904
0.99999904
0.99999904
0.99999904
1.0804414
1.0018438
1.0005697
1.0000037
0.99999925
0.99999904
0.99999904
0.99999904
0.99999904
0.99999904
0.99999904
0.99999904
0.99999904
0.99999904
1.0789076
1.0016002
1.0005681
1.0000047
0.99999916
0.99999904
0.99999904
0.99999904
0.99999904
0.99999904
0.99999904
0.99999904
0.99999904
0.99999904
1.0694968
1.0048222
1.0002917
1.0000059
0.99999908
0.99999904
0.99999904
0.99999904
0.99999904
0.99999904
0.99999904
0.99999904
0.99999904
0.99999904
0.99999904
0.99999904
0.99999904
0.99999904
0.99999904
0.99999904
0.99999904
0.99999904
0.99999904
0.99999904
0.99999904
0.99999904
0.99999904
0.99999904
0.99999904
0.99999904
0.99999904
0.99999904
0.99999904
0.99999904
0.99999904
0.99999904
0.99999904
0.99999904
0.99999904
0.99999904
0.99999904
0.99999904
0.99999904
0.99999904
0.99999904
0.99999904
0.99999904
0.99999904
0.99999904
0.99999904
0.99999904
0.99999904
0.99999904
0.99999904
0.99999904
0.99999904
0.99999904
0.99999904
0.99999904
0.99999904
0.99999904
0.99999904
0.99999904
0.99999904
0.99999904
0.99999904
0.99999904
0.99999904
0.99999904
0.99999904
0.99999904
0.99999904
0.99999904
0.99999904
0.99999904
0.99999904
0.99999904
0.99999904
0.99999904
0.99999904
0.99999904
0.99999904
0.99999904
0.99999904
0.99999904
0.99999904
0.99999904
0.99999904
0.99999904
0.99999904
0.99999904
0.99999904
0.99999904
0.99999904
0.99999904
0.99999904
0.99999904
0.99999904
0.99999904
0.99999904
0.99999904
0.99999904
0.99999904
0.99999904
0.99999904
0.99999904
0.99999904
0.99999904
0.99999904
0.99999904
0.99999904
0.99999904
0.99999904
0.99999904
0.99999904
0.99999904
0.99999904
0.99999904
0.99999904
0.99999904
0.99999904
0.99999904
0.99999904
0.99999904
0.99999904
0.99999904
0.99999904
0.99999904
0.99999904
0.99999904
0.99999904
0.99999904
0.99999904
0.99999904
0.99999904
0.99999904
0.99999904
0.99999904
0.99999904
0.99999904
0.99999904
0.99999904
0.99999904
0.99999904
0.99999904
0.99999904
0.99999904
0.99999904
0.99999904
0.99999904
0.99999904
0.99999904
0.99999904
0.99999904
0.99999904
0.99999904
0.99999904
0.99999904
0.99999904
0.99999904
0.99999904
0.99999904
0.99999904
0.99999904
0.99999904
0.99999904
0.99999904
0.99999904
0.99999904
0.99999904
0.99999904
0.99999904
0.99999904
0.99999904
0.99999904
0.99999904
0.99999904
0.99999904
0.99999904
0.99999904
0.99999904
0.99999904
0.99999904
0.99999904
0.99999904
0.99999904
0.99999904
0.99999904
0.99999904
0.99999904
0.99999904
0.99999904
0.99999904
0.99999904
0.99999904
0.99999904
0.99999904
0.99999904
0.99999904
0.99999904
0.99999904
0.99999904
0.99999904
0.99999904
0.99999904
0.99999904
0.99999904
0.99999904
0.99999904
0.99999904
0.99999904
0.99999904
0.99999904
0.99999904
0.99999904
0.99999904
0.99999904
0.99999904
0.99999904
0.99999904
0.99999904
0.99999904
0.99999904
0.99999904
0.99999904
0.99999904
0.99999904
0.99999904
0.99999904
0.99999904
0.99999904
0.99999904
0.99999904
0.99999904
0.99999904
0.99999904
0.99999904
0.99999904
0.99999904
0.99999904
0.99999904
0.99999904
0.99999904
0.99999904
0.99999904
0.99999904
0.99999904
0.99999904
0.99999904
0.99999904
0.99999904
0.99999904
0.99999904
0.99999904
0.99999904
0.99999904
0.99999904
0.99999904
0.99999904
0.99999904
0.99999904
0.99999904
0.99999904
0.99999904
0.99999904
0.99999904
0.99999904
0.99999904
0.99999904
0.99999904
0.99999904
0.99999904
0.99999904
0.99999904
0.99999904
0.99999904
0.99999904
0.99999904
0.99999904
0.99999904
0.99999904
0.99999904
0.99999904
0.99999904
0.99999904
0.99999904
0.99999904
0.99999904
0.99999904
0.99999904
0.99999904
0.99999904
0.99999904
0.99999904
0.99999904
0.99999904
0.99999904
0.99999904
0.99999904
0.99999904
0.99999904
0.99999904
0.99999904
0.99999904
0.99999904
0.99999904
0.99999904
0.99999904
0.99999904
0.99999904
0.99999904
0.99999904
0.99999904
0.99999904
0.99999904
0.99999904
0.99999904
0.99999904
0.99999904
0.99999904
0.99999904
0.99999904
0.99999904
0.99999904
0.99999904
0.99999904
0.99999904
0.99999904
0.99999904
0.99999904
0.99999904
0.99999904
0.99999904
0.99999904
0.99999904
0.99999904
0.91458848
0.91239756
0.90801169
0.90599111
0.99554176
0.99697488
0.99669283
0.9965913
0.99929609
0.99944526
0.99940682
0.99938677
0.999956
0.99996264
0.9999587
0.99995644
0.99999797
0.99999828
0.99999818
0.99999813
0.999999
0.99999901
0.999999
0.999999
0.99999904
0.99999904
0.99999904
0.99999904
0.99999904
0.99999904
0.99999904
0.99999904
0.99999904
0.99999904
0.99999904
0.99999904
0.99999904
0.99999904
0.99999904
0.99999904
0.99999904
0.99999904
0.99999904
0.99999904
0.99999904
0.99999904
0.99999904
0.99999904
0.99999904
0.99999904
0.99999904
0.99999904
0.99999904
0.99999904
0.99999904
0.99999904
0.99999904
0.99999904
0.99999904
0.99999904
0.99999904
0.99999904
0.99999904
0.99999904
0.99999904
0.99999904
0.99999904
0.99999904
0.99999904
0.99999904
0.99999904
0.99999904
0.99999904
0.99999904
0.99999904
0.99999904
0.99999904
0.99999904
0.99999904
0.99999904
0.99999904
0.99999904
0.99999904
0.99999904
0.99999904
0.99999904
0.99999904
0.99999904
0.99999904
0.99999904
0.99999904
0.99999904
0.99999904
0.99999904
0.99999904
0.99999904
0.99999902
0.99999903
0.99999903
0.99999855
0.99999855
0.99996166
0.99996238
0.99953773
)
;

boundaryField
{
    Side
    {
        type            empty;
    }
    Inlet
    {
        type            calculated;
        value           nonuniform List<scalar> 
28
(
0.99999904
0.99999904
0.99999904
0.99999904
0.99999904
0.99999904
0.99999904
0.99999904
0.99999904
0.99999904
0.99999904
0.99999904
0.99999904
0.99999904
0.99999904
0.99999904
0.99999904
0.99999904
0.99999904
0.99999904
0.99999904
0.99999904
0.99999904
0.99999904
0.99999904
0.99999904
0.99999904
0.99999904
)
;
    }
    Airfoil
    {
        type            calculated;
        value           nonuniform List<scalar> 
60
(
0.46848608
0.46949043
0.46999041
0.4706053
0.47113702
0.47169982
0.47205467
0.47191413
0.47093879
0.46936088
0.46885384
0.47303997
0.48752356
0.51360787
0.86537254
0.86394934
0.86263928
0.86136718
0.860187
0.85927182
0.85870466
0.85844111
0.85792697
0.85670523
0.85566597
0.85734157
0.86484381
0.849934
0.98959188
1.0980372
1.1566207
1.1932884
1.2123229
1.2068739
1.1774641
1.1473974
1.1289476
1.1189877
1.1116142
1.1030053
1.0921771
1.0800362
0.78186853
0.77311318
0.79310834
0.8171359
0.84138293
0.86670369
0.89295272
0.91931208
0.94518744
0.97016649
0.99475837
1.0181122
1.0399414
1.0613174
0.87916411
0.86824503
0.86224095
0.85910829
)
;
    }
    Outlet
    {
        type            calculated;
        value           nonuniform List<scalar> 0();
    }
    Flap
    {
        type            calculated;
        value           nonuniform List<scalar> 
36
(
0.96047395
0.94888219
0.93753348
0.92576549
0.9138179
0.97108432
0.98138885
0.99410629
1.0044959
1.0104956
1.0163084
1.0240984
1.0331156
1.0423115
1.051566
1.0618694
1.0726248
1.0807886
1.0891377
2.2594732
1.8891383
1.8953784
1.8038571
1.706852
1.6014079
1.4906969
1.3877456
1.2993066
1.2349187
1.1836642
1.149158
1.1203435
1.102834
1.120896
1.1138732
1.1076849
)
;
    }
    procBoundary2to1
    {
        type            processor;
        value           nonuniform List<scalar> 
73
(
0.99999904
0.99999904
0.99999904
0.99999904
0.99999904
0.99999904
0.99999904
0.99999904
0.99999904
0.99999904
0.99999904
0.99999904
0.99999904
0.99999904
0.99647094
0.90986987
0.99999904
0.99999904
0.99999904
0.99999904
0.99999904
0.99999904
0.99999904
0.99999904
0.99999904
0.99999904
0.99999904
0.99999904
0.99999904
0.99999904
0.99999904
0.99999904
0.99999904
0.99999904
0.99999904
0.99999904
0.99999904
0.99999904
0.99999904
0.99999904
0.9034204
0.99640487
0.99935741
0.9999533
0.99999806
0.999999
0.99999904
0.99999904
0.99999904
0.99999904
0.99999904
0.99999904
0.99999904
0.99999904
0.99999904
0.99999904
0.99999904
0.99999904
0.99999904
0.99999904
0.99999904
0.99999904
0.99999904
0.99999904
0.99999904
0.99999904
0.99999903
0.99999856
0.99999856
0.99996339
0.99954045
0.99954045
0.99647094
)
;
    }
    procBoundary2to3
    {
        type            processor;
        value           nonuniform List<scalar> 
113
(
0.99999904
0.99999904
0.98536204
1.0165397
0.98923152
0.99051019
0.99220954
0.99278229
0.99247571
0.99131983
0.98957292
0.98758554
0.98555536
0.9835417
0.98160917
0.97990976
0.97990976
0.9852596
1.0023118
1.0006636
1.0006636
1.0165397
0.98413566
0.98304493
0.98611184
0.99014516
0.99186616
0.99086883
0.98387085
0.97055446
0.95461067
0.94014763
0.93128335
0.92380066
0.93211815
0.93211815
0.92301925
0.99999904
0.99999904
0.99999904
0.99999904
0.99999904
0.99999904
0.99999904
0.99999904
0.99999904
0.99999904
0.99999904
0.99999904
0.99999904
0.99999904
0.99999904
0.99999902
0.99999902
0.99999854
0.99999854
0.99996304
0.99996304
0.99957005
0.99957005
0.99999904
0.99999904
0.99999904
0.99999904
0.99999904
0.99999904
0.99999904
0.99999904
0.99999904
0.99999904
0.99999904
0.99999904
0.99999904
0.99999904
0.99999904
1.0854383
1.0021081
1.0006447
1.0000044
0.99999927
0.99999904
0.99999904
0.99999904
0.99999904
0.99999904
0.99999904
0.99999904
0.99999904
0.99999904
0.99999904
0.99999904
0.99999904
0.99999904
0.99999904
0.99999904
0.99999904
0.99999904
0.99999904
0.99999904
0.99999904
0.99999904
0.99999904
0.99999904
0.99999904
0.99999904
0.99999904
0.99999904
0.99999904
0.99999904
0.99999904
0.99999904
0.99999904
0.99999904
)
;
    }
}


// ************************************************************************* //
