/*--------------------------------*- C++ -*----------------------------------*\
| =========                 |                                                 |
| \\      /  F ield         | OpenFOAM: The Open Source CFD Toolbox           |
|  \\    /   O peration     | Version:  2206                                  |
|   \\  /    A nd           | Website:  www.openfoam.com                      |
|    \\/     M anipulation  |                                                 |
\*---------------------------------------------------------------------------*/
FoamFile
{
    version     2.0;
    format      ascii;
    arch        "LSB;label=32;scalar=64";
    class       volScalarField;
    location    "0.02";
    object      T;
}
// * * * * * * * * * * * * * * * * * * * * * * * * * * * * * * * * * * * * * //

dimensions      [0 0 0 1 0 0 0];

internalField   nonuniform List<scalar> 
1396
(
1
1
1
1
1
1
1
1
1
1
1
1
1
1
1
1
1
1
1
1
1
1
1
1
1
1
1
1
1
1
1
1
1
1
1
1
1
1
1
1
1
1
1
1
1
1
1
1
1
1
1
1
1
1
1
1
1
1
1
1
1
1
1
1
1
1
1
1
1
1
1
1
1
1
1
1
1
1
1
1
1
1
1
1
1
1
1
1
1
1
1
1
1
1
1
1
1
1
1.0737902
1.0085301
1.0085535
1.0664481
0.99742217
1.0015033
1.0670162
0.98942426
0.99680389
1.0639675
0.98017685
0.99126036
1.0632433
0.97123671
0.98653947
1.0612885
0.9622525
0.98251245
1.0600223
0.95368504
0.97938979
1.0587727
0.94544328
0.97721632
1.0577853
0.93737233
0.97606098
1.0568371
0.92939629
0.97596364
1.0563605
0.92162808
0.9769551
1.0567552
0.91430292
0.97896701
1.0631944
0.90775297
0.98167837
1.0737175
0.90233104
0.98443682
1.0175667
0.98077573
0.9698674
0.8424198
0.97832818
0.98032345
1.0131102
1.0437531
1.0457667
1.0308125
1.0123943
1.0032339
1.0006162
1.000674
1.0008561
1.0009662
1.0001605
0.91686621
0.99650537
0.9926808
1.0195384
1.0392379
1.0359191
1.0216123
1.0061713
0.99848542
0.99655941
0.99692535
0.99737894
0.99678166
0.99494665
0.99771689
1.01995
1.014669
1.0260417
1.0302422
1.0216119
1.009021
0.99803117
0.99340584
0.99285307
0.99407997
0.99518646
0.99333916
0.98981727
1.0212549
1.02598
1.0242694
1.0229294
1.0172605
1.0061254
0.996293
0.98990906
0.98814659
0.98913105
0.99154695
0.99364235
0.99009287
0.98568168
0.98241235
1
1
1
1
1
1
1
1
0.99999991
0.99999709
0.99992175
0.99898725
0.99145802
0.9523233
1
1
1
1
1
1
1
1
0.9999999
0.99999698
0.99991956
0.99896609
0.99128638
0.95173592
1
1
1
1
1
1
1
1
0.9999999
0.99999691
0.99991798
0.99894908
0.99113611
0.95121124
1
1
1
1
1
1
1
1
0.9999999
0.99999685
0.99991661
0.99893399
0.99099713
0.95073112
1
1
1
1
1
1
0.9999999
0.9999968
0.99991537
0.99892071
0.99087051
0.9502947
1
1
1
1
1
0.99999989
0.99999676
0.99991439
0.99891166
0.99076906
0.94991792
1
1
1
1
0.99999989
0.99999673
0.99991382
0.99890807
0.99070067
0.94963717
1
1
0.99999989
0.99999673
0.99991365
0.99890783
0.9906582
0.94941556
1
0.99999989
0.99999672
0.99991339
0.99890225
0.99060071
0.9491851
0.99999989
0.99999668
0.99991241
0.99888658
0.99049906
0.94891769
0.99999663
0.99991138
0.99887979
0.99040834
0.94884043
0.99991316
0.99891683
0.99050687
0.94915049
0.99896064
0.99083158
0.94992287
0.99144235
0.95967632
1
1
1
1
1
1
1
1
1
1
1
1
1
1
1
1
1.0045136
1.0079377
1.0124434
1.017273
1.021748
1.0255435
1.0294855
1.0339598
1.0387109
1.0434448
1.0479597
1.0520242
1.0547212
1.0550241
1.0054399
1.008688
1.0127717
1.017235
1.0217319
1.026239
1.0310803
1.0364716
1.0424801
1.0490944
1.0561053
1.063306
1.0702219
1.0763971
1.0052751
1.0084524
1.0122997
1.0161566
1.0201567
1.0244822
1.0293966
1.0350542
1.0414782
1.0487154
1.0568513
1.0658046
1.0752764
1.0849727
1.0051183
1.0083654
1.0122168
1.0162468
1.0206436
1.0256665
1.0314655
1.0380324
1.0451972
1.0527887
1.0607217
1.0688344
1.0767186
1.0840975
1.0049643
1.0081811
1.0116892
1.0152471
1.0190203
1.0231461
1.0276227
1.0323494
1.0371534
1.0418707
1.046396
1.0505751
1.054307
1.0572307
1.0071316
1.0094405
1.0115845
1.013636
1.0156994
1.0177869
1.0198805
1.0219557
1.0239127
1.0255675
1.0268691
1.027813
1.028325
1.0281535
1.0156583
1.0162023
1.0160272
1.0159032
1.015736
1.0155967
1.0155257
1.0155129
1.0154626
1.015311
1.0150209
1.0145605
1.0139337
1.0130632
1.0352147
1.0354475
1.0320654
1.0288718
1.025699
1.0230293
1.0208401
1.0189639
1.0173223
1.0156365
1.0138113
1.0119884
1.0102452
1.0086135
1.0517033
1.0556237
1.0533676
1.049757
1.0442853
1.0384468
1.0334021
1.0293913
1.0261049
1.0231578
1.0202895
1.0173854
1.014487
1.0117564
1.0517091
1.0630695
1.0688072
1.0712794
1.068074
1.0596165
1.0512251
1.0449102
1.0400956
1.0358675
1.0315777
1.0269949
1.0221557
1.0174807
1.0267436
1.0426549
1.0501133
1.0562384
1.0595122
1.0581395
1.0524758
1.0454137
1.0396662
1.0356818
1.0324805
1.028875
1.0244081
1.0196654
0.99218189
0.9992079
1.0094574
1.0219978
1.03128
1.0351554
1.0330849
1.0271768
1.0232386
1.0214112
1.0201968
1.0183619
1.0155718
1.012471
0.99198135
1.0075364
1.0156252
1.0232837
1.0274786
1.0334571
1.0343956
1.0289173
1.0235918
1.0201676
1.0175768
1.0152048
1.0124851
1.0097673
1.0127005
1.0202496
1.0413781
1.0460994
1.049833
1.0510304
1.0475253
1.0388768
1.0319058
1.026535
1.0222614
1.0184005
1.014767
1.011899
0.91492053
1.3192266
0.9945688
1.0277018
1.0004438
1.0002279
0.99969474
0.99819531
0.99361333
0.98522455
0.9779908
0.97444414
0.97768658
0.99603243
0.94696926
1.1685533
1.0109569
1.0306597
1.0024126
1.0002605
0.99938061
0.99681794
0.98935909
0.97708174
0.96594244
0.95776971
0.95968917
0.98589624
1.0105532
1.1458873
1.0307434
1.0255186
1.0048561
1.0002921
0.99911535
0.99579296
0.98688225
0.97287689
0.95910151
0.94434609
0.94105667
0.97023726
1.0242527
1.133401
1.0484738
1.0211392
1.0073589
1.000451
0.99891149
0.99516975
0.98603016
0.97234644
0.95853118
0.94000262
0.93670374
0.96266339
1.0080776
1.1221688
1.0703974
1.0219905
1.0104644
1.0008021
0.9987583
0.9947996
0.98593124
0.97339481
0.96138804
0.94236419
0.93975702
0.96176935
0.99366107
1.1073263
1.1013432
1.0265627
1.0141213
1.0014193
0.99871863
0.99466141
0.98628675
0.97504447
0.96548564
0.94759358
0.94738453
0.96486387
0.98511926
1.1033719
1.1074924
1.0337962
1.018956
1.002469
0.99889768
0.99481697
0.98716365
0.97719652
0.96994404
0.95400815
0.95600789
0.97032497
0.98637061
1.0992293
1.1083012
1.0457355
1.0250431
1.004118
0.9994377
0.99535534
0.98866357
0.97994198
0.97470156
0.96125776
0.9641229
0.97629089
0.99746952
1.0973834
1.1103178
1.0597578
1.0324349
1.0065734
1.0004753
0.99629943
0.99075475
0.98354127
0.98003055
0.96916362
0.97191247
0.98160686
1.012877
1.0994116
1.113913
1.0732048
1.0406871
1.0100086
1.0020379
0.9976337
0.99343854
0.98790821
0.98625024
0.97729974
0.97945505
0.98652128
1.0292652
1.0994334
1.1161246
1.0870317
1.0471727
1.0142637
1.0042573
0.99940059
0.99669195
0.99297472
0.99297702
0.98599383
0.98647467
0.99139312
1.041714
1.0964667
1.1140511
1.0955631
1.0525977
1.0187673
1.0070429
1.001584
1.0003614
0.99885993
0.99987443
0.9944892
0.99333612
0.996882
1.0500643
1.0910874
1.1077823
1.096677
1.0572345
1.023321
1.0091494
1.003927
1.00441
1.0053621
1.0068236
1.002337
1.0001659
1.0017801
1.053069
1.0821595
1.0951757
1.0907384
1.0585206
1.0266404
1.0115576
1.0066252
1.0086691
1.0125191
1.0147173
1.0100141
1.008093
1.0113021
1.0775606
1.0222367
1.0292915
1.0019005
1.0011868
0.99999271
1.0000505
0.99993002
0.99917096
0.99350621
0.97996151
0.96392743
0.95566486
0.95542282
1.0054427
1.0065487
1.0009761
1.0004599
1.0000059
1.0000057
0.99996935
0.99991245
0.99979751
0.99960031
0.99908054
0.9978165
0.99549202
0.99301057
1.0005113
1.0001448
1.000102
1.0000035
1.000004
1.0000001
0.99999996
0.99999777
0.99998874
0.99995887
0.99988609
0.99975534
0.99954018
0.999257
1.000004
1.0000067
1.0000007
1.0000006
1
1
0.99999995
0.99999986
0.99999958
0.99999871
0.99999586
0.99998802
0.99997136
0.99994629
1.0000001
1
1
1
1
1
1
0.99999999
0.99999997
0.99999991
0.99999979
0.9999995
0.9999989
0.99999789
1
1
1
1
1
1
1
1
1
1
0.99999999
0.99999998
0.99999996
0.99999992
1
1
1
1
1
1
1
1
1
1
1
1
1
1
1
1
1
1
1
1
1
1
1
1
1
1
1
1
1
1
1
1
1
1
1
1
1
1
1
1
1
1
1
1
1
1
1
1
1
1
1
1
1
1
1
1
1
1
1
1
1
1
1
1
1
1
1
1
1
1
1
1
1
1
1
1
1
1
1
1
1
1
1
1
1
1
1
1
1
1
1
1
1
1
1
1
1
1
1
1
1
1
1
1
1
1
1
1
1
1
1
1
1.0374426
1.0028592
1.0007175
1.0000152
1.0000003
1
1
1
1
1
1
1
1
1
1.0324084
1.0031953
1.0006345
1.0000153
1.0000002
1
1
1
1
1
1
1
1
1
1.0357067
1.0047308
1.0004426
1.0000131
1.0000001
1
1
1
1
1
1
1
1
1
1
1
1
1
1
1
1
1
1
1
1
1
1
1
1
1
1
1
1
1
1
1
1
1
1
1
1
1
1
1
1
1
1
1
1
1
1
1
1
1
1
1
1
1
1
1
1
1
1
1
1
1
1
1
1
1
1
1
1
1
1
1
1
1
1
1
1
1
1
1
1
1
1
1
1
1
1
1
1
1
1
1
1
1
1
1
1
1
1
1
1
1
1
1
1
1
1
1
1
1
1
1
1
1
1
1
1
1
1
1
1
1
1
1
1
1
1
1
1
1
1
1
1
1
1
1
1
1
1
1
1
1
1
1
1
1
1
1
1
1
1
1
1
1
1
1
1
1
1
1
1
1
1
1
1
1
1
1
1
1
1
1
1
1
1
1
1
1
1
1
1
1
1
1
1
1
1
1
1
1
1
1
1
1
1
1
1
1
1
1
1
1
1
1
1
1
1
1
1
1
1
1
1
1
1
1
1
1
1
1
1
1
1
1
1
1
1
1
1
1
1
1
1
1
1
1
1
1
1
1
1
1
1
1
1
1
1
1
1
1
1
1
1
1
1
1
1
1
1
1
1
1
1
1
1
1
1
1
1
1
1
1
1
1
1
1
1
1
1
1
1
1
1
1
1
1
1
1
1
1
1
1
1
1
1
1
1
1
1
1
1
1
1
1
1
1
1
1
1
1
1
1
1
1
1
1
1
1
1
1
1
1
1
1
1
1
1
1
1
1
1
1
0.96126742
0.95160823
0.94959235
0.94825245
0.99223276
0.99120027
0.99102684
0.99073113
0.99903417
0.99894051
0.99890385
0.99885441
0.99992646
0.99992052
0.99991577
0.99991052
0.99999709
0.99999696
0.99999674
0.9999965
0.9999999
0.99999989
0.99999988
0.99999987
1
1
1
1
1
1
1
1
1
1
1
1
1
1
1
1
1
1
1
1
1
1
1
1
1
1
1
1
1
1
1
1
1
1
1
1
1
1
1
1
1
1
1
1
1
1
1
1
1
1
1
1
1
1
1
1
1
1
1
1
1
1
1
1
1
1
1
1
1
1
1
1
0.99999991
0.99999992
0.99999992
0.99999727
0.99999735
0.99992478
0.99992683
0.99901082
)
;

boundaryField
{
    Side
    {
        type            empty;
    }
    Inlet
    {
        type            inletOutlet;
        inletValue      uniform 1;
        value           nonuniform List<scalar> 
28
(
1
1
1
1
1
1
1
1
1
1
1
1
1
1
1
1
1
1
1
1
1
1
1
1
1
1
1
1
)
;
    }
    Airfoil
    {
        type            fixedValue;
        value           uniform 1;
    }
    Outlet
    {
        type            zeroGradient;
    }
    Flap
    {
        type            fixedValue;
        value           uniform 1;
    }
    procBoundary2to1
    {
        type            processor;
        value           nonuniform List<scalar> 
73
(
1
1
1
1
1
1
1
1
1
1
1
1
1
1
0.99166289
0.95296265
1
1
1
1
1
1
1
1
1
1
1
1
1
1
1
1
1
1
1
1
1
1
1
1
0.9476488
0.99047324
0.99880795
0.99990559
0.99999627
0.99999986
1
1
1
1
1
1
1
1
1
1
1
1
1
1
1
1
1
1
1
1
0.99999992
0.99999745
0.99999745
0.9999293
0.99903363
0.99903363
0.99166289
)
;
    }
    procBoundary2to3
    {
        type            processor;
        value           nonuniform List<scalar> 
113
(
1
1
1.007336
0.98479828
1.0031399
1.0017712
1.0000518
0.99957262
1.0000293
1.0013813
1.0033825
1.0056921
1.008089
1.010487
1.0128604
1.015198
1.015198
1.0101894
0.99364103
0.99223701
0.99223701
0.98479828
1.0132269
1.0184505
1.0167801
1.0110753
1.0034436
0.99340444
0.9862375
0.9830441
0.98313947
0.98545999
0.98894658
0.99216555
0.98683165
0.98683165
0.97765658
1
1
1
1
1
1
1
1
1
1
1
1
1
1
1
0.99999989
0.99999989
0.99999671
0.99999671
0.9999198
0.9999198
0.99905302
0.99905302
1
1
1
1
1
1
1
1
1
1
1
1
1
1
1
1.0400704
1.0030797
1.0008011
1.0000176
1.0000004
1
1
1
1
1
1
1
1
1
1
1
1
1
1
1
1
1
1
1
1
1
1
1
1
1
1
1
1
1
1
1
1
1
)
;
    }
}


// ************************************************************************* //
