/*--------------------------------*- C++ -*----------------------------------*\
| =========                 |                                                 |
| \\      /  F ield         | OpenFOAM: The Open Source CFD Toolbox           |
|  \\    /   O peration     | Version:  2206                                  |
|   \\  /    A nd           | Website:  www.openfoam.com                      |
|    \\/     M anipulation  |                                                 |
\*---------------------------------------------------------------------------*/
FoamFile
{
    version     2.0;
    format      ascii;
    arch        "LSB;label=32;scalar=64";
    class       volVectorField;
    location    "0.02";
    object      U;
}
// * * * * * * * * * * * * * * * * * * * * * * * * * * * * * * * * * * * * * //

dimensions      [0 1 -1 0 0 0 0];

internalField   nonuniform List<vector> 
1396
(
(0.85671779 0.043699275 -6.5847821e-25)
(0.85671779 0.043699275 1.9754325e-24)
(0.85671779 0.043699275 -1.3169536e-24)
(0.85671779 0.043699275 -2.6339043e-24)
(0.85671779 0.043699275 7.9017042e-24)
(0.85671779 0.043699275 -5.267797e-24)
(0.85671779 0.043699275 -5.2677913e-24)
(0.85671779 0.043699275 1.0535571e-23)
(0.85671779 0.043699275 -5.2677799e-24)
(0.85671779 0.043699275 1.0535548e-23)
(0.85671779 0.043699275 -1.0535537e-23)
(0.85671779 0.043699275 0)
(0.85671779 0.043699275 1.0535514e-23)
(0.85671779 0.043699275 -1.0535502e-23)
(0.85671779 0.043699275 0)
(0.85671779 0.043699275 -1.3161483e-24)
(0.85671779 0.043699275 1.3161469e-24)
(0.85671779 0.043699275 0)
(0.85671779 0.043699275 0)
(0.85671779 0.043699275 0)
(0.85671779 0.043699275 0)
(0.85671779 0.043699275 0)
(0.85671779 0.043699275 0)
(0.85671779 0.043699275 1.0529095e-23)
(0.85671779 0.043699275 -1.0529083e-23)
(0.85671779 0.043699275 0)
(0.85671779 0.043699275 -1.052906e-23)
(0.85671779 0.043699275 -6.4584999e-36)
(0.85671779 0.043699275 -6.57672e-25)
(0.85671779 0.043699275 1.9730138e-24)
(0.85671779 0.043699275 -1.3153411e-24)
(0.85671779 0.043699275 -2.6306794e-24)
(0.85671779 0.043699275 7.8920297e-24)
(0.85671779 0.043699275 -5.2613474e-24)
(0.85671779 0.043699275 -5.2613417e-24)
(0.85671779 0.043699275 5.261336e-24)
(0.85671779 0.043699275 -5.2613303e-24)
(0.85671779 0.043699275 1.5783974e-23)
(0.85671779 0.043699275 -1.0522638e-23)
(0.85671779 0.043699275 -1.0522626e-23)
(0.85671779 0.043699275 2.5905831e-35)
(0.85671779 0.043699275 1.0522603e-23)
(0.85671779 0.043699275 -6.5726963e-25)
(0.85671779 0.043699275 -6.5726891e-25)
(0.85671779 0.043699275 1.3145364e-24)
(0.85671779 0.043699275 2.6290699e-24)
(0.85671779 0.043699275 -7.8872013e-24)
(0.85671779 0.043699275 1.0516257e-23)
(0.85671779 0.043699275 -5.2581228e-24)
(0.85671779 0.043699275 5.2581171e-24)
(0.85671779 0.043699275 -5.2581114e-24)
(0.85671779 0.043699275 1.0516211e-23)
(0.85671779 0.043699275 -1.05162e-23)
(0.85671779 0.043699275 0)
(0.85671779 0.043699275 0)
(0.85671779 0.043699275 0)
(0.85671779 0.043699275 -6.5686776e-25)
(0.85671779 0.043699275 1.9706011e-24)
(0.85671779 0.043699275 -1.3137327e-24)
(0.85671779 0.043699275 0)
(0.85671779 0.043699275 5.2549192e-24)
(0.85671779 0.043699275 -5.2549135e-24)
(0.85671779 0.043699275 -5.2549078e-24)
(0.85671779 0.043699275 5.2549021e-24)
(0.85671779 0.043699275 0)
(0.85671779 0.043699275 1.0509781e-23)
(0.85671779 0.043699275 -1.050977e-23)
(0.85671779 0.043699275 1.0509759e-23)
(0.85671779 0.043699275 -1.9013272e-35)
(0.85671779 0.043699275 -1.0509736e-23)
(0.85671779 0.043699275 0)
(0.85671779 0.043699275 -1.3129313e-24)
(0.85671779 0.043699275 1.3129299e-24)
(0.85671779 0.043699275 -2.6258569e-24)
(0.85671779 0.043699275 7.8775623e-24)
(0.85671779 0.043699275 -5.2517025e-24)
(0.85671779 0.043699275 0)
(0.85671779 0.043699275 0)
(0.85671779 0.043699275 -5.2516854e-24)
(0.85671779 0.043699275 1.5755039e-23)
(0.85671779 0.043699275 -1.0503348e-23)
(0.85671779 0.043699275 0)
(0.85671779 0.043699275 -1.0503325e-23)
(0.85671779 0.043699275 1.0503314e-23)
(0.85671779 0.043699275 -6.5606549e-25)
(0.85671779 0.043699275 1.9681943e-24)
(0.85671779 0.043699275 -1.3121281e-24)
(0.85671779 0.043699275 -2.6242534e-24)
(0.85671779 0.043699275 7.8727517e-24)
(0.85671779 0.043699275 -5.2484955e-24)
(0.85671779 0.043699275 -5.2484898e-24)
(0.85671779 0.043699275 1.0496968e-23)
(0.85671779 0.043699275 -1.0496957e-23)
(0.85671779 0.043699275 1.5745418e-23)
(0.85671779 0.043699275 -1.0496934e-23)
(0.85671779 0.043699275 0)
(0.85671779 0.043699275 -1.0496911e-23)
(0.85671779 0.043699275 1.04969e-23)
(1.1216609 0.62587427 -7.229411e-21)
(1.0631093 0.54680061 -4.633024e-21)
(1.0090098 0.42080901 0)
(1.1326512 0.6283054 0)
(1.0733353 0.53879739 0)
(1.0144861 0.41098895 3.5244332e-21)
(1.1430059 0.62660994 -7.0821091e-21)
(1.080899 0.5298054 0)
(1.0184094 0.40323695 -3.5019243e-21)
(1.1532362 0.62528265 1.4041796e-20)
(1.0885145 0.5205545 0)
(1.0220011 0.39459473 0)
(1.1632793 0.62396809 -6.9706145e-21)
(1.0955942 0.51128135 0)
(1.024997 0.38598661 -3.4632218e-21)
(1.173162 0.62274025 0)
(1.1022816 0.50188107 4.3920685e-21)
(1.0274904 0.37723937 -3.9351142e-24)
(1.1829332 0.62175253 1.3744027e-20)
(1.1085781 0.49254005 4.3566281e-21)
(1.029491 0.36844867 1.0295167e-20)
(1.1927387 0.62188601 -1.3645075e-20)
(1.1145059 0.48322667 -8.5887948e-21)
(1.0310283 0.35962398 -6.8373948e-21)
(1.2027384 0.62389013 0)
(1.1200979 0.47396572 0)
(1.0321313 0.35081112 0)
(1.2128963 0.62740597 0)
(1.1253685 0.46465664 0)
(1.0328078 0.34193667 6.8290616e-21)
(1.2225412 0.62998713 0)
(1.1303207 0.45519607 -8.3538216e-21)
(1.0330477 0.33288751 -6.8198802e-21)
(1.2299988 0.62604098 -1.3469371e-20)
(1.1349573 0.44562795 -1.2290517e-23)
(1.0328842 0.32375682 0)
(1.232927 0.60363224 2.6858699e-20)
(1.1391599 0.43620871 1.6400773e-20)
(1.0324954 0.31510951 0)
(1.2295445 0.55762361 6.0020581e-22)
(1.1421428 0.42735291 1.0774319e-23)
(1.0322167 0.3075644 0)
(0.97386502 0.21711711 0)
(0.76505419 0.031647382 -5.7511773e-23)
(0.75163629 -0.0037840338 -1.0636647e-22)
(1.159286 0.33949869 2.6993779e-22)
(1.041568 0.097456931 -4.9694446e-22)
(0.98128477 -0.012346361 -7.4365979e-22)
(0.92011531 -0.16251787 5.3746635e-22)
(0.8716667 -0.28272264 0)
(0.83222472 -0.32021415 0)
(0.83815594 -0.19949522 2.1090581e-22)
(0.86151741 -0.05794922 -2.7423742e-22)
(0.88424787 0.011358135 4.1287548e-22)
(0.90435488 0.033477539 -3.4465949e-22)
(0.92173447 0.035322167 -1.3732002e-22)
(0.93526898 0.027968878 7.0033673e-23)
(0.93881136 0.0073934466 -1.0325496e-22)
(0.92636588 0.015012563 5.2206252e-23)
(1.1265702 0.34082978 -1.0305033e-21)
(1.0650372 0.15315466 6.0194991e-22)
(1.0257436 0.038906111 -4.9471597e-22)
(0.97330448 -0.11614409 5.5929766e-22)
(0.92947421 -0.2252248 0)
(0.87633365 -0.27515555 2.8803031e-22)
(0.86329493 -0.17328377 -3.6437102e-22)
(0.87215942 -0.071351357 0)
(0.88954143 -0.016686802 0)
(0.90661328 0.0041942655 -6.9626052e-23)
(0.92134582 0.01049932 1.4241585e-22)
(0.93250306 0.012209393 -7.0550573e-23)
(0.93402454 -0.0023321482 2.1425253e-22)
(0.91991763 0.0064254434 5.3057191e-23)
(1.0336267 0.25394806 6.4105983e-22)
(1.0283934 0.13826923 -7.2502307e-22)
(1.0222167 0.038618462 0)
(0.99090676 -0.08271175 -5.2306056e-22)
(0.95829662 -0.16070939 5.2056865e-22)
(0.90370412 -0.19859029 -2.949889e-22)
(0.88362013 -0.13010261 2.9636197e-22)
(0.88282637 -0.074021648 0)
(0.89504009 -0.038311882 -3.6086306e-22)
(0.90911989 -0.020173093 3.6513341e-22)
(0.92138345 -0.010120606 -1.4554722e-22)
(0.9306405 -0.00010136364 3.6632952e-22)
(0.93030808 -0.010053791 -7.3665015e-23)
(0.91488019 -0.0021110203 -1.469293e-22)
(0.98130832 0.17708771 6.0430457e-22)
(0.9936439 0.098353195 -5.31181e-22)
(0.99439778 0.021461601 0)
(0.97355508 -0.057259237 -7.6567231e-23)
(0.94919923 -0.10231723 7.6874756e-23)
(0.90801411 -0.12177151 -7.4955623e-23)
(0.89187556 -0.091904746 7.4338262e-23)
(0.88970404 -0.074111192 3.6993604e-22)
(0.89926095 -0.05583779 -2.255945e-22)
(0.91134423 -0.040033389 2.2273024e-22)
(0.92154441 -0.026509325 -3.0164889e-22)
(0.92931582 -0.0093122244 -7.5992705e-23)
(0.92769724 -0.016914898 1.4927975e-22)
(0.91120513 -0.010432914 -7.6226822e-23)
(0.90795291 -0.019877906 -1.7747616e-26)
(0.85671779 0.043699275 -7.7310283e-22)
(0.85671779 0.043699275 9.7985723e-22)
(0.85671779 0.043699275 -7.9497379e-22)
(0.85671779 0.043699275 -4.0318999e-22)
(0.85671779 0.043699275 1.0226478e-21)
(0.85671779 0.043699275 0)
(0.85671779 0.043699274 8.4265071e-22)
(0.85671779 0.043699252 2.1386926e-22)
(0.85671763 0.043698476 -9.7728756e-22)
(0.85671194 0.04367035 6.617579e-22)
(0.85664065 0.043310442 1.1204953e-22)
(0.85530949 0.036697276 0)
(0.84721946 -0.0036702918 9.1819847e-22)
(0.84778327 -0.0055916157 -1.0082135e-21)
(0.85671779 0.043699275 0)
(0.85671779 0.043699275 0)
(0.85671779 0.043699275 -7.9487169e-22)
(0.85671779 0.043699275 8.0624452e-22)
(0.85671779 0.043699275 0)
(0.85671779 0.043699275 1.0374941e-21)
(0.85671779 0.043699274 6.3180241e-22)
(0.85671778 0.04369925 -1.0689847e-21)
(0.85671762 0.043698446 2.1709159e-22)
(0.85671161 0.043669563 9.9219291e-22)
(0.85663688 0.043303694 -1.1199567e-22)
(0.85524394 0.036556403 0)
(0.84691626 -0.004120837 1.0247913e-21)
(0.84728912 -0.0059871548 8.8846439e-22)
(0.85671779 0.043699275 -7.7293694e-22)
(0.85671779 0.043699275 0)
(0.85671779 0.043699275 7.9467942e-22)
(0.85671779 0.043699275 -1.8135358e-21)
(0.85671779 0.043699275 -4.0884026e-22)
(0.85671779 0.043699275 -2.0742193e-22)
(0.85671779 0.043699274 -1.8946188e-21)
(0.85671778 0.04369925 1.06849e-21)
(0.85671761 0.043698426 8.6792256e-22)
(0.85671139 0.043668994 -8.814604e-22)
(0.85663414 0.043298312 0)
(0.85519164 0.03644031 0)
(0.84665445 -0.0045346842 -1.0239996e-21)
(0.84691346 -0.0063861397 1.0137696e-21)
(0.85671779 0.043699275 3.328645e-34)
(0.85671779 0.043699275 -5.8755734e-22)
(0.85671779 0.043699275 -1.9859829e-22)
(0.85671779 0.043699275 8.0568888e-22)
(0.85671779 0.043699275 8.1731048e-22)
(0.85671779 0.043699275 -2.0731806e-22)
(0.85671779 0.043699274 1.0519867e-21)
(0.85671778 0.043699249 0)
(0.85671761 0.043698411 -8.6735475e-22)
(0.85671122 0.04366852 0)
(0.85663196 0.043293609 0)
(0.85514595 0.036334333 -1.1288951e-22)
(0.84641283 -0.0049231092 1.1378309e-21)
(0.84658752 -0.0067822837 -1.125361e-21)
(0.85671779 0.043699275 -9.9252905e-22)
(0.85671779 0.043699275 8.0527741e-22)
(0.85671779 0.043699275 0)
(0.85671779 0.043699275 -1.6575415e-21)
(0.85671779 0.043699274 0)
(0.85671778 0.043699249 -8.5367605e-22)
(0.8567176 0.043698397 1.0833728e-21)
(0.85671106 0.043668093 -2.2003088e-22)
(0.85662996 0.043289474 -7.8224409e-22)
(0.85510261 0.0362351 -7.2008765e-25)
(0.84617619 -0.0052715653 -9.2274752e-22)
(0.84617904 -0.0071047023 -2.3118637e-22)
(0.85671779 0.043699275 -6.0361647e-22)
(0.85671779 0.043699275 -1.0204543e-21)
(0.85671779 0.043699275 8.282407e-22)
(0.85671779 0.043699274 2.1011717e-22)
(0.85671778 0.043699248 -4.2653156e-22)
(0.8567176 0.043698387 -6.4953054e-22)
(0.85671093 0.043667751 -8.7941675e-22)
(0.85662826 0.04328654 8.9314673e-22)
(0.85507537 0.036151972 -9.0650114e-22)
(0.84594991 -0.0055377839 -8.0687318e-22)
(0.84565201 -0.0072679843 -1.1959364e-22)
(0.85671779 0.043699275 8.1586949e-22)
(0.85671779 0.043699275 -8.2771898e-22)
(0.85671779 0.043699274 1.0498972e-21)
(0.85671778 0.043699248 6.3936108e-22)
(0.85671759 0.043698381 -8.6542663e-22)
(0.85671083 0.043667541 7.6892929e-22)
(0.85662705 0.043285363 2.2304131e-22)
(0.85507294 0.036093306 1.5856799e-21)
(0.84576005 -0.0056977234 1.027681e-21)
(0.84509559 -0.0072658122 0)
(0.85671779 0.043699274 -8.3940741e-22)
(0.85671778 0.043699248 0)
(0.85671759 0.04369838 8.6487637e-22)
(0.8567108 0.043667485 -1.0976775e-22)
(0.8566266 0.043285652 1.114903e-22)
(0.85507751 0.036065161 -9.0516003e-22)
(0.84567044 -0.0057797926 0)
(0.84483887 -0.0072585892 1.1110097e-22)
(0.85671778 0.043699248 -1.2768622e-21)
(0.85671759 0.043698379 2.1603005e-22)
(0.85671078 0.043667452 -7.677248e-22)
(0.85662642 0.043285018 -2.2267864e-22)
(0.85505287 0.036041454 1.1311266e-22)
(0.84565638 -0.0059139573 1.064351e-22)
(0.8451449 -0.0075539517 -1.1927097e-22)
(0.85671759 0.04369837 -6.4719028e-22)
(0.85671067 0.043667206 6.57066e-22)
(0.85662515 0.043280979 0)
(0.85499975 0.035978834 -9.0270131e-22)
(0.84551816 -0.0061875751 0)
(0.84539151 -0.0081152303 -8.8514022e-22)
(0.85671046 0.043666825 -1.0935073e-21)
(0.85662241 0.043278715 0)
(0.85497543 0.035883392 9.0123585e-22)
(0.84513151 -0.0063267246 0)
(0.84399682 -0.0079162422 7.7404847e-22)
(0.85662089 0.043289347 8.8894632e-22)
(0.85513476 0.035922328 -9.0217576e-22)
(0.84492468 -0.0058859923 0)
(0.84012361 -0.005280585 8.8936462e-22)
(0.85516318 0.036553921 9.0403509e-22)
(0.8458654 -0.0044397267 1.0683792e-22)
(0.84626838 -0.0087149024 -1.1146469e-21)
(0.8416868 -0.0030981382 -9.0786511e-22)
(0.78113528 0.026552891 -8.6133146e-22)
(0.85671779 0.043699275 0)
(0.85671779 0.043699275 0)
(0.85671779 0.043699275 -8.3901289e-23)
(0.85671779 0.043699275 -8.0804805e-23)
(0.85671779 0.043699275 0)
(0.85671779 0.043699275 -1.0549952e-22)
(0.85671779 0.043699275 1.1880635e-22)
(0.85671779 0.043699275 0)
(0.85671779 0.043699275 1.5888799e-22)
(0.85671779 0.043699275 1.9112844e-22)
(0.85671779 0.043699275 0)
(0.85671779 0.043699275 0)
(0.85671779 0.043699275 -1.9074054e-22)
(0.85671779 0.043699275 -7.474171e-24)
(0.85671779 0.043699275 -6.3112946e-22)
(0.85671779 0.043699275 1.9268876e-21)
(0.93317755 0.020973791 3.0564373e-23)
(0.93639611 0.025531983 9.1093461e-23)
(0.93835268 0.029077243 6.6959745e-25)
(0.94195924 0.030802266 -8.7902227e-23)
(0.95075376 0.03152866 2.9014543e-23)
(0.96332591 0.033453475 0)
(0.9760454 0.036887101 1.6815521e-22)
(0.98788551 0.041799109 -5.3987636e-23)
(0.99916793 0.049243841 -3.2711011e-22)
(1.0093492 0.060805541 -3.7976833e-22)
(1.0164283 0.077872462 4.2581524e-22)
(1.0182434 0.10148597 -1.0849406e-22)
(1.013977 0.13323327 0)
(1.001609 0.17521218 1.0704883e-22)
(0.94352156 0.017207821 -1.8268764e-23)
(0.94815444 0.024991974 -7.291401e-24)
(0.95453946 0.030488561 3.8721932e-24)
(0.96363161 0.034210304 -2.460122e-23)
(0.97583548 0.038262295 -2.4165155e-23)
(0.99024279 0.04434751 1.1010764e-22)
(1.0056839 0.052692619 -2.713522e-22)
(1.0213923 0.063090236 4.2691617e-22)
(1.0363121 0.07635461 -2.6333705e-22)
(1.0489337 0.094046614 1.0704343e-24)
(1.0583192 0.11780472 0)
(1.0648578 0.14915631 1.0042923e-22)
(1.0689665 0.19028219 -4.1324016e-22)
(1.0704897 0.2428318 4.0405936e-22)
(0.93825711 0.043001576 1.1727043e-22)
(0.94172658 0.054965212 -1.0457976e-22)
(0.94682512 0.068316587 -3.4568879e-24)
(0.95430933 0.082948959 -3.0704737e-23)
(0.96375734 0.10011087 -3.3463983e-24)
(0.97435001 0.12066962 0)
(0.98577875 0.14419015 0)
(0.99790423 0.17043046 -1.5617255e-22)
(1.0100127 0.20031237 2.5378392e-22)
(1.0208558 0.23488489 3.5836999e-22)
(1.028918 0.27499645 -8.0500113e-22)
(1.0326531 0.32101371 3.9541841e-22)
(1.0297226 0.37291508 -4.0110294e-22)
(1.0156548 0.43097631 7.8678689e-22)
(0.92243841 0.058248193 1.367959e-23)
(0.92431259 0.077447091 0)
(0.92714249 0.098382417 0)
(0.93150153 0.12169752 3.9535953e-23)
(0.93682206 0.14827 -1.2906131e-23)
(0.94230086 0.17879087 2.5468465e-23)
(0.94776794 0.21311767 -6.2730123e-24)
(0.9530362 0.2513133 -2.0093629e-22)
(0.95721721 0.29403565 1.9696639e-22)
(0.9590282 0.3418235 -2.4318727e-23)
(0.9567653 0.3947313 0)
(0.94845628 0.45185025 -3.4237155e-22)
(0.93177631 0.51074567 7.6791347e-22)
(0.90397442 0.56760275 -3.8202702e-22)
(0.90286852 0.060708738 6.6238747e-23)
(0.90303272 0.084100488 -1.0416697e-22)
(0.9035297 0.10791438 0)
(0.90463024 0.13348132 1.2773328e-23)
(0.90582556 0.16150277 3.7812579e-23)
(0.90643254 0.19249268 -7.3881846e-23)
(0.90637723 0.22681386 6.1026274e-24)
(0.90539056 0.26475008 0)
(0.9025046 0.30618362 0)
(0.89678529 0.35062652 4.0262874e-22)
(0.88729925 0.39645149 -3.720087e-22)
(0.87301188 0.44007669 -1.6321691e-24)
(0.85334358 0.47937199 -4.4690858e-23)
(0.82900467 0.51355652 -4.5365098e-22)
(0.88087582 0.038837 1.267591e-22)
(0.88032348 0.065101249 1.0111222e-22)
(0.88011457 0.087530131 -1.0054786e-22)
(0.87968396 0.10972025 0)
(0.87886855 0.13148138 0)
(0.87723887 0.15320268 9.5086263e-23)
(0.87493208 0.17584981 0)
(0.87185475 0.19993374 -1.8502609e-22)
(0.86749683 0.2243722 1.822711e-22)
(0.86198428 0.24781174 0)
(0.85417761 0.26874532 0)
(0.84493335 0.28561286 -3.9627955e-22)
(0.8347146 0.29652836 7.3671193e-22)
(0.82519825 0.29706824 -1.0657527e-21)
(0.85550942 -0.036259918 0)
(0.85531322 -0.0028286217 1.0057258e-22)
(0.85724584 0.020593641 9.7041242e-23)
(0.85836259 0.041170865 9.6991939e-23)
(0.85906967 0.057955272 -9.4978004e-23)
(0.8589378 0.07129634 -9.1685023e-23)
(0.85817945 0.083616652 9.051493e-23)
(0.8569709 0.095938316 0)
(0.85532937 0.10684623 0)
(0.85327992 0.11533645 0)
(0.85060647 0.12078571 0)
(0.84819419 0.12300862 3.4286541e-22)
(0.84640197 0.12207605 -2.6866224e-25)
(0.84507954 0.11786719 4.1055922e-23)
(0.82233861 -0.19399367 -1.9610012e-22)
(0.81938922 -0.14387398 -9.5957042e-23)
(0.82485248 -0.10785273 -2.2037309e-22)
(0.8310861 -0.0770249 -8.1183857e-23)
(0.83740375 -0.053010647 -3.9158432e-23)
(0.84188838 -0.03552014 -1.3495858e-22)
(0.84437809 -0.020845309 0)
(0.84565082 -0.0071013484 4.4014943e-23)
(0.84643777 0.0049468888 1.7134055e-22)
(0.84701692 0.015241994 -1.694005e-22)
(0.84751916 0.023878859 0)
(0.84787457 0.031040544 -5.1333199e-24)
(0.84820072 0.03691185 0)
(0.84853948 0.041536646 -3.1751851e-22)
(0.79675706 -0.33571046 4.9545294e-23)
(0.77818562 -0.33201677 0)
(0.77553301 -0.30481191 1.8602226e-22)
(0.78337377 -0.26242287 0)
(0.7985633 -0.22044318 1.7923475e-22)
(0.81144836 -0.18444702 0)
(0.8209746 -0.1539707 0)
(0.826851 -0.12734664 -3.0010014e-22)
(0.83048426 -0.1036786 2.5467444e-22)
(0.83327679 -0.081911336 -3.3078728e-22)
(0.83588805 -0.061608418 2.8585156e-22)
(0.83836374 -0.042747264 0)
(0.84047034 -0.025462914 0)
(0.84195812 -0.0099887388 0)
(0.81789147 -0.31677429 -1.401329e-22)
(0.77346134 -0.34307461 0)
(0.74990147 -0.35001869 1.8952885e-22)
(0.74307401 -0.32977103 -1.88145e-22)
(0.75247192 -0.29770217 0)
(0.77213103 -0.26087602 0)
(0.7881333 -0.22555996 8.3480136e-23)
(0.7983803 -0.19660721 -2.5522205e-22)
(0.80413513 -0.17161343 8.5516225e-23)
(0.80816101 -0.14763864 -2.4246129e-22)
(0.81212838 -0.12336563 3.6231896e-22)
(0.81643736 -0.098929232 0)
(0.82065666 -0.075129862 0)
(0.82407074 -0.052902882 0)
(0.86032597 -0.20280241 1.3322097e-24)
(0.80671818 -0.2531367 0)
(0.76744363 -0.27830672 2.5006516e-24)
(0.74380686 -0.28686499 1.7521605e-22)
(0.73633029 -0.27654767 0)
(0.74848747 -0.24749763 -1.7510155e-22)
(0.76740951 -0.22038589 2.5303257e-22)
(0.78140802 -0.2002557 1.6341879e-22)
(0.7885116 -0.18346126 -1.6265934e-22)
(0.79152794 -0.16603178 -1.5912442e-22)
(0.79386286 -0.14598153 0)
(0.79718528 -0.1229827 -7.7986918e-23)
(0.80158214 -0.097914256 3.8254258e-23)
(0.80562698 -0.071992662 2.9555441e-22)
(0.91536995 -0.05849682 2.4939225e-22)
(0.8531639 -0.099507069 0)
(0.8018039 -0.12139714 -1.4639513e-22)
(0.76554164 -0.13448919 -3.5249523e-22)
(0.74458813 -0.13824171 3.3075659e-22)
(0.74085886 -0.13015474 2.4398334e-22)
(0.76095494 -0.11686348 -7.704005e-23)
(0.77451274 -0.10592827 3.136788e-22)
(0.78046843 -0.098878974 -1.5631162e-22)
(0.78044104 -0.093296039 1.5189435e-22)
(0.77910586 -0.086580374 7.5312354e-23)
(0.77835694 -0.077469579 4.4356467e-22)
(0.77916975 -0.065993522 -2.9436592e-22)
(0.78121063 -0.052935815 -3.2189133e-22)
(0.96231579 0.050761707 7.8637338e-23)
(0.88818227 -0.004481364 0)
(0.83557729 -0.019723388 -2.080367e-23)
(0.79449622 -0.031922094 3.4153593e-22)
(0.76887132 -0.037294265 -3.1694534e-22)
(0.76141593 -0.03245693 -1.6084975e-22)
(0.77047245 -0.022194199 1.5530175e-22)
(0.78361327 -0.015294261 -4.6272167e-22)
(0.79061632 -0.013266823 1.5253517e-22)
(0.79228129 -0.014269852 7.3905448e-23)
(0.78869414 -0.015589395 -6.6172544e-22)
(0.78549347 -0.015428355 2.1826968e-22)
(0.78417533 -0.01355166 -3.564079e-23)
(0.78422522 -0.010400292 3.5035049e-23)
(1.0292298 0.0068579173 -1.5648093e-22)
(0.93104155 -0.019893693 0)
(0.8491214 -0.028676853 3.2864155e-22)
(0.79386566 -0.034410171 1.0266213e-23)
(0.75254289 -0.032378423 -1.0000711e-23)
(0.73101338 -0.021726453 0)
(0.73622476 -0.011192924 0)
(0.75615886 -0.0061697339 -1.5146762e-22)
(0.77015414 -0.0047854725 1.4876203e-22)
(0.77295165 -0.0046359036 1.4722713e-22)
(0.76920465 -0.0043340273 0)
(0.76469311 -0.0034237836 2.8201603e-22)
(0.76216506 -0.0020152196 -2.7997764e-22)
(0.76169924 0.00037160903 0)
(-0.32780926 -0.10353446 0)
(-0.40297798 -0.27513938 1.9068301e-21)
(0.78790622 -0.0021673635 1.6085175e-22)
(0.79549264 0.073599839 -1.777171e-22)
(0.85564954 0.037743917 1.0944748e-21)
(0.85553637 0.045901466 1.0088724e-21)
(0.85626637 0.045941845 0)
(0.85410766 0.056739406 -4.348035e-22)
(0.8471751 0.081776352 6.0453386e-24)
(0.83497725 0.12358422 3.7928083e-22)
(0.82435008 0.17094176 3.7229683e-22)
(0.82141987 0.20495007 -1.0045221e-21)
(0.81693051 0.22691482 1.6781283e-23)
(0.8262768 0.21387666 0)
(0.034383793 0.37046676 -1.1743944e-22)
(0.033753262 -0.10195638 -1.1376476e-21)
(0.80593708 0.031275046 0)
(0.74322023 0.091769472 2.7939793e-22)
(0.85567175 0.037501965 -1.2647488e-21)
(0.85371565 0.047696787 1.3181777e-25)
(0.85521784 0.047221249 9.0550537e-22)
(0.85058276 0.062742102 8.5794899e-22)
(0.84147166 0.096109021 8.1076399e-22)
(0.82860264 0.14925009 1.1354204e-21)
(0.81895505 0.21013886 -3.7038222e-22)
(0.82067953 0.25282652 1.3828243e-21)
(0.80830071 0.29697267 6.9598881e-22)
(0.8130485 0.26043301 6.8006657e-22)
(-0.011563753 0.49024669 -3.1573744e-22)
(-0.072927064 0.11215245 -1.0323126e-21)
(0.80261217 0.061678864 9.0001396e-22)
(0.70348893 0.13428874 0)
(0.85434626 0.039180975 0)
(0.85191964 0.050480634 -9.6071706e-22)
(0.85428939 0.049098992 -4.6009014e-22)
(0.84767233 0.069275899 -8.8107186e-22)
(0.83614172 0.10886426 -1.2559869e-21)
(0.82060617 0.16838998 -8.1140164e-22)
(0.80698589 0.23483039 -4.0421607e-22)
(0.81013606 0.26842854 -1.0831775e-21)
(0.78481158 0.31939966 -6.8194812e-22)
(0.78410653 0.26521593 0)
(0.02201839 0.63653671 -3.3629184e-22)
(-0.078377057 0.30984064 1.3371847e-21)
(0.78605032 0.098803119 -1.231184e-21)
(0.67831826 0.18419306 0)
(0.8509306 0.043892329 0)
(0.85064205 0.053584204 -5.0764251e-22)
(0.8538843 0.051066291 1.4572925e-21)
(0.84660362 0.07393553 -9.2795368e-22)
(0.83411436 0.1157763 -4.4693734e-22)
(0.81644762 0.17588088 4.141463e-22)
(0.79693564 0.24238552 0)
(0.79821213 0.2583152 7.5550102e-22)
(0.76684728 0.3091891 3.5373639e-22)
(0.75933831 0.24913229 -7.2890538e-22)
(0.10262279 0.76027204 3.5677593e-22)
(-0.03125937 0.48116853 3.9522235e-22)
(0.74453102 0.15417922 3.5754039e-22)
(0.66740616 0.23424958 -6.0732868e-22)
(0.84467304 0.052836304 1.1444204e-21)
(0.84992935 0.057014698 -5.460133e-22)
(0.85364555 0.052891589 -5.1606014e-22)
(0.84676801 0.076625133 1.9682571e-21)
(0.83476188 0.11803151 9.3045043e-22)
(0.81717258 0.17507735 -1.3366154e-21)
(0.79524259 0.2386851 -4.2296544e-22)
(0.79484056 0.23482019 -7.9306358e-22)
(0.76530635 0.28135915 3.7606267e-22)
(0.7450526 0.22028123 -8.5558228e-25)
(0.19800942 0.83753963 0)
(0.069327102 0.61006334 -8.2274437e-22)
(0.66373722 0.24975434 -7.4162363e-22)
(0.65610711 0.29193178 3.3903853e-22)
(0.83622539 0.066862419 9.1770951e-22)
(0.8488377 0.061459893 -1.1585966e-21)
(0.85339455 0.054557966 -1.0939085e-21)
(0.8473693 0.077753186 -1.0402114e-21)
(0.83647173 0.11718791 4.9338631e-22)
(0.82046585 0.16902804 -4.6816899e-22)
(0.79722427 0.23200384 4.4257274e-22)
(0.79725606 0.20807618 4.2024803e-22)
(0.77239267 0.24363686 -4.018699e-22)
(0.74067816 0.18466337 -3.9033114e-22)
(0.30428783 0.8708261 -3.9301915e-22)
(0.21564954 0.68173424 1.6879963e-21)
(0.58686773 0.37606903 3.9924637e-22)
(0.64638608 0.35652083 -3.5055004e-22)
(0.82505599 0.086846108 -3.3320563e-22)
(0.84644649 0.068411885 -3.0553525e-22)
(0.85299371 0.056045522 8.6598043e-22)
(0.8479903 0.077378144 0)
(0.83815165 0.11372869 5.1287235e-22)
(0.82400574 0.15884455 -5.8025583e-24)
(0.80051754 0.22149928 4.5447155e-22)
(0.79902167 0.18123166 -4.5121135e-22)
(0.78164514 0.20088585 -6.6473172e-24)
(0.74221078 0.14737258 -2.2088088e-24)
(0.43835419 0.85165033 -4.4475728e-22)
(0.37262424 0.71536256 4.431008e-22)
(0.54117797 0.50905181 -3.7823978e-22)
(0.63057901 0.43440422 4.2114676e-22)
(0.8083149 0.12294404 6.990804e-22)
(0.8425386 0.079767924 9.6516099e-22)
(0.85209784 0.057449965 3.0380711e-22)
(0.84855662 0.075461375 -2.8815554e-22)
(0.83956122 0.10749162 -2.722707e-22)
(0.82679996 0.14428933 -2.60303e-22)
(0.80368004 0.20434192 2.3103043e-22)
(0.79920809 0.15359323 -9.3363822e-22)
(0.78844435 0.15572202 8.7903538e-22)
(0.74608657 0.11167577 -4.315868e-22)
(0.55036202 0.77867564 9.1300513e-22)
(0.52645453 0.71743643 0)
(0.54642333 0.62019307 -8.919294e-22)
(0.60886507 0.51186811 0)
(0.78656501 0.17827818 -1.0842007e-21)
(0.83715972 0.096447732 -1.3363874e-21)
(0.85071117 0.060712423 -3.1523789e-22)
(0.84925146 0.071966806 -2.9821433e-22)
(0.84075839 0.098229124 8.4891471e-22)
(0.82876728 0.12543181 -4.1097185e-24)
(0.80642892 0.18042056 0)
(0.79738649 0.12350849 0)
(0.79085465 0.11137071 0)
(0.75000187 0.079948428 2.2422321e-22)
(0.65757904 0.66933251 -7.7438544e-22)
(0.67162935 0.68203532 -1.2201038e-21)
(0.60568592 0.69309297 2.4034554e-22)
(0.61226365 0.61122598 4.0544102e-22)
(0.75446949 0.26032194 -3.9807267e-22)
(0.83057633 0.11833092 6.9907288e-22)
(0.84884916 0.065687622 6.5629751e-22)
(0.84963074 0.067435968 -1.3597663e-24)
(0.84174515 0.0859294 -5.8471285e-22)
(0.82998159 0.10230358 -5.2913278e-24)
(0.808641 0.14906083 2.6084863e-22)
(0.79389817 0.090359075 -2.5332951e-22)
(0.79027322 0.07246612 -7.2771702e-22)
(0.75284847 0.054870507 2.3183736e-22)
(0.76047819 0.54572364 -8.1241973e-22)
(0.80247873 0.61222787 7.8866679e-22)
(0.70218234 0.69264872 0)
(0.63646763 0.67078608 2.3039658e-22)
(0.73340759 0.37266849 -1.936762e-22)
(0.82269004 0.15146412 1.8078823e-22)
(0.8469163 0.072363897 -8.5546657e-22)
(0.84961929 0.062571148 6.4123801e-22)
(0.84257968 0.070596479 0)
(0.83050986 0.074866621 7.1655975e-22)
(0.81024687 0.1102578 -8.0451832e-25)
(0.78917567 0.056519905 -1.310173e-22)
(0.78903052 0.041771899 4.9261803e-22)
(0.75511105 0.03515015 -1.2018638e-22)
(0.85484691 0.42732144 8.4721156e-22)
(0.91080439 0.51889663 5.496158e-22)
(0.80856137 0.66310176 0)
(0.69796383 0.68395389 -4.5919064e-22)
(0.73231865 0.47203365 4.1263011e-22)
(0.81439245 0.19779665 -7.5773886e-22)
(0.84535229 0.080932777 1.0565006e-21)
(0.84937682 0.057384511 -1.6572938e-22)
(0.84309336 0.052461955 1.5689445e-22)
(0.83023429 0.044026837 0)
(0.81142069 0.065192028 0)
(0.7857727 0.024075169 0)
(0.78791929 0.019682654 0)
(0.75799087 0.020294355 0)
(0.92920121 0.3227096 0)
(0.99157619 0.4154389 0)
(0.9039168 0.5981746 -6.3353548e-22)
(0.77715595 0.67147656 2.3880695e-22)
(0.7554469 0.52444388 3.1730823e-22)
(0.81061298 0.24684553 8.7398371e-22)
(0.84430008 0.093333124 -4.5408744e-22)
(0.84911369 0.052489779 0)
(0.8432399 0.032023301 -3.246036e-22)
(0.8291856 0.01123572 0)
(0.8114384 0.015981057 2.9602815e-22)
(0.7847625 -0.0054800845 0)
(0.78704809 0.0050570056 2.6929678e-22)
(0.76131602 0.010154847 2.7384136e-22)
(0.97771474 0.23684378 1.5135366e-22)
(1.0468863 0.31809511 0)
(0.97622928 0.50827059 2.7895086e-22)
(0.8528009 0.62735134 0)
(0.79465631 0.53338183 -2.2129326e-22)
(0.81607103 0.28262091 3.022644e-22)
(0.84431935 0.10815819 -9.2200794e-23)
(0.84884491 0.046674603 1.7554257e-22)
(0.84287095 0.0093704418 2.8940988e-22)
(0.82695422 -0.023811576 5.9280627e-23)
(0.80912974 -0.033936286 -4.6947245e-22)
(0.78312046 -0.03264917 1.4439655e-22)
(0.78539533 -0.0042081634 -2.7053021e-22)
(0.7621189 0.0041993153 -2.604776e-22)
(0.5474997 -0.29142448 1.2931641e-22)
(0.6977535 0.031801978 1.7877661e-23)
(0.76100368 -0.022891321 0)
(0.85570322 0.056184903 1.394596e-22)
(0.85089082 0.040821136 -1.7364141e-23)
(0.85691356 0.044167139 1.5460372e-22)
(0.85696425 0.044770322 0)
(0.85703996 0.048973306 1.1801457e-22)
(0.85228443 0.058728044 3.336879e-23)
(0.83944706 0.075126027 2.4356062e-22)
(0.82320165 0.093692002 -1.3818387e-22)
(0.81195223 0.10694909 1.4756944e-22)
(0.80811154 0.11022538 -1.7228755e-23)
(0.80854503 0.10490011 4.9516761e-25)
(0.83165667 0.017698296 -1.3371271e-22)
(0.84038892 0.027814679 -1.6181437e-22)
(0.85416125 0.04302773 1.4141e-22)
(0.85440682 0.042382701 -2.8141374e-22)
(0.85667103 0.043695887 1.5620179e-22)
(0.85658129 0.043703149 -1.7194092e-22)
(0.85652059 0.043797653 1.5328731e-22)
(0.85638869 0.044057162 -2.6998481e-22)
(0.8563352 0.044819554 1.337427e-22)
(0.85631486 0.046746788 -2.482992e-22)
(0.85624824 0.051172578 -1.640751e-23)
(0.85574851 0.060574428 1.300061e-22)
(0.85389031 0.072412712 -2.3753872e-22)
(0.84838633 0.082777173 7.9856297e-23)
(0.85529267 0.041076682 1.2644961e-22)
(0.85621483 0.043111311 1.8136897e-23)
(0.85638483 0.043350217 -2.659284e-22)
(0.85669022 0.043691463 1.4030122e-22)
(0.85670214 0.043685849 -2.9530699e-22)
(0.85671824 0.043704494 -1.7206419e-23)
(0.85671661 0.043716788 -2.7272639e-22)
(0.85671138 0.043756484 1.6882907e-23)
(0.85669435 0.043837891 1.2060195e-26)
(0.8566306 0.044008202 -1.6606468e-23)
(0.85650493 0.044349605 1.6429474e-23)
(0.85633769 0.04497439 1.3071312e-25)
(0.85611239 0.046038698 -2.7563119e-25)
(0.85578381 0.047704688 -2.3941765e-22)
(0.85668716 0.0436338 -1.265447e-22)
(0.85669568 0.04365312 1.4320431e-22)
(0.85671275 0.043693198 1.4178178e-22)
(0.85671548 0.043696657 -1.7551635e-23)
(0.85671765 0.043699285 1.7384201e-22)
(0.85671757 0.043699367 -1.7219943e-23)
(0.85671764 0.043700048 1.3647006e-22)
(0.85671767 0.043702051 1.5210502e-22)
(0.85671785 0.043708172 -1.5070708e-22)
(0.8567179 0.043724136 1.327406e-22)
(0.85671654 0.043758478 0)
(0.85671032 0.04381949 -1.3035147e-22)
(0.85669244 0.043909371 1.2917527e-22)
(0.85665124 0.044017716 1.2800888e-22)
(0.85671738 0.043698594 -1.2662116e-22)
(0.85671744 0.04369863 1.2537671e-22)
(0.85671767 0.04369898 -1.4189316e-22)
(0.85671777 0.043699256 1.2295983e-22)
(0.85671778 0.043699255 -1.3918399e-22)
(0.85671779 0.043699294 1.5510131e-22)