/*--------------------------------*- C++ -*----------------------------------*\
| =========                 |                                                 |
| \\      /  F ield         | OpenFOAM: The Open Source CFD Toolbox           |
|  \\    /   O peration     | Version:  2206                                  |
|   \\  /    A nd           | Website:  www.openfoam.com                      |
|    \\/     M anipulation  |                                                 |
\*---------------------------------------------------------------------------*/
FoamFile
{
    version     2.0;
    format      ascii;
    arch        "LSB;label=32;scalar=64";
    class       volScalarField;
    location    "0.00042057";
    object      yPlus;
}
// * * * * * * * * * * * * * * * * * * * * * * * * * * * * * * * * * * * * * //

dimensions      [0 0 0 0 0 0 0];

internalField   uniform 0;

boundaryField
{
    Side
    {
        type            empty;
    }
    Inlet
    {
        type            calculated;
        value           uniform 0;
    }
    Outlet
    {
        type            calculated;
        value           uniform 0;
    }
    Flap
    {
        type            calculated;
        value           nonuniform List<scalar> 
107
(
8.16054
11.7084
12.0654
13.3642
14.0527
15.0518
15.9015
16.4718
16.9231
17.2554
17.4673
17.5646
17.4998
17.2878
16.8955
16.4432
15.9024
15.3525
14.865
14.44
14.0563
13.6632
13.2409
12.7256
11.8391
11.1939
11.6587
12.9895
9.68662
13.49
13.521
13.6077
13.8214
14.2933
15.196
16.7422
19.1151
22.3732
25.8113
28.7584
30.9148
32.4939
33.5806
34.2681
34.7069
34.8844
35.0365
35.1328
35.2355
35.5649
35.8425
35.9219
35.9363
35.5475
33.1601
29.4459
26.4131
52.5567
20.6015
18.8758
19.5298
21.9716
22.3259
25.3855
25.9864
26.8062
26.7145
26.2047
25.3374
24.4016
23.1512
22.0671
20.8265
19.8935
18.9625
18.2532
17.6316
17.1634
16.7353
16.3992
16.1362
15.895
15.7445
15.5993
15.4892
15.4005
15.3082
15.2173
15.1342
15.0531
14.9693
14.8758
14.7646
14.642
14.5335
14.4608
14.3902
14.2799
14.1362
13.9884
13.8397
13.7272
13.6262
13.5266
13.4675
13.4248
13.4463
)
;
    }
    Airfoil
    {
        type            calculated;
        value           nonuniform List<scalar> 
176
(
23.3167
20.9473
20.3732
19.9959
19.6627
19.3451
18.9095
18.5743
18.1871
17.8081
17.46
17.1011
16.7788
16.4752
16.1827
15.9463
15.7148
15.5139
15.3469
15.194
15.0624
14.9601
14.8848
14.8352
14.8073
14.7978
14.8051
14.8258
14.875
14.9268
14.9809
15.0623
15.137
15.2484
15.3695
15.5033
15.5772
15.5861
15.569
15.6866
15.9801
15.991
15.7115
15.3834
14.9876
14.5298
14.2762
14.1226
13.9436
20.3475
27.9599
29.946
31.9976
34.6231
37.2058
39.2741
40.7478
42.0534
43.2288
43.8953
43.6687
43.1948
42.9989
42.2616
40.4483
39.3231
39.0216
38.8449
38.2405
36.9259
35.0754
32.467
28.7421
23.7169
19.0624
15.4939
13.0873
11.5814
10.4802
9.61002
8.69356
7.66848
6.66325
5.40307
3.84757
1.74605
4.52428
4.65739
8.49894
10.1346
12.0244
13.525
14.114
14.0194
13.5784
13.0458
12.5234
12.0523
11.6468
11.2952
10.9998
10.7401
10.5006
10.2502
9.8829
9.29029
8.47728
8.54004
7.67099
8.41543
17.1527
27.7682
27.2301
25.3253
23.75
22.62
21.9174
21.5208
21.2848
21.3259
21.5551
21.9261
22.8657
23.2457
22.4849
20.9341
23.9245
6.35229
3.79008
3.54108
4.8989
5.86312
6.62209
7.32268
8.0723
8.7975
9.19114
9.26143
9.185
9.03737
8.87363
8.72602
8.60993
8.56706
8.51367
8.3712
8.31267
8.45245
8.76118
9.11191
9.3941
9.36075
9.27088
8.93704
8.11128
6.72267
5.99022
6.49343
8.30562
9.67144
10.5647
10.8738
10.73
10.316
9.73798
9.1614
8.57394
7.89287
7.41646
6.76956
6.15189
5.49568
4.66012
3.41388
3.94508
4.94005
)
;
    }
}


// ************************************************************************* //
