/*--------------------------------*- C++ -*----------------------------------*\
| =========                 |                                                 |
| \\      /  F ield         | OpenFOAM: The Open Source CFD Toolbox           |
|  \\    /   O peration     | Version:  2206                                  |
|   \\  /    A nd           | Website:  www.openfoam.com                      |
|    \\/     M anipulation  |                                                 |
\*---------------------------------------------------------------------------*/
FoamFile
{
    version     2.0;
    format      ascii;
    arch        "LSB;label=32;scalar=64";
    class       volScalarField;
    location    "0.02";
    object      alphat;
}
// * * * * * * * * * * * * * * * * * * * * * * * * * * * * * * * * * * * * * //

dimensions      [1 -1 -1 0 0 0 0];

internalField   nonuniform List<scalar> 
1396
(
2.8302265e-08
3.1086219e-08
2.9686302e-08
2.8913163e-08
2.8656157e-08
2.8086481e-08
2.7696269e-08
2.7605021e-08
2.7648585e-08
2.7707586e-08
2.7744551e-08
2.8531268e-08
3.2118097e-08
3.0088471e-08
2.8976959e-08
2.8563925e-08
2.800827e-08
2.7678783e-08
2.7597404e-08
2.7642584e-08
2.7701094e-08
2.7739101e-08
2.8178235e-08
3.159449e-08
3.0460125e-08
2.9187722e-08
2.8505968e-08
2.793697e-08
2.7638744e-08
2.757981e-08
2.762982e-08
2.7688865e-08
2.7728339e-08
2.7936006e-08
3.1173453e-08
3.0363454e-08
2.9250279e-08
2.8455146e-08
2.7891791e-08
2.7614494e-08
2.7563e-08
2.7615024e-08
2.7667645e-08
2.7708103e-08
2.7203063e-08
3.0778193e-08
3.0337906e-08
2.9295807e-08
2.8371289e-08
2.7826385e-08
2.7574098e-08
2.7533693e-08
2.7586879e-08
2.7629015e-08
2.7669882e-08
2.7000994e-08
3.0086236e-08
3.0249006e-08
2.9344215e-08
2.8336711e-08
2.7787281e-08
2.7541302e-08
2.7500535e-08
2.7544789e-08
2.7566134e-08
2.7601782e-08
2.6185294e-08
2.9454217e-08
2.9895528e-08
2.9266756e-08
2.8279098e-08
2.7739058e-08
2.7499232e-08
2.7452402e-08
2.7478829e-08
2.7464692e-08
2.7487052e-08
2.5380153e-08
2.8959077e-08
2.9746188e-08
2.926867e-08
2.8263045e-08
2.7697624e-08
2.7448215e-08
2.7381631e-08
2.7385254e-08
2.7310263e-08
2.7303404e-08
2.4327853e-08
2.8172388e-08
2.9312888e-08
2.9108129e-08
2.8187515e-08
2.7631499e-08
2.7371541e-08
2.7275137e-08
2.7235951e-08
2.7080599e-08
2.7019635e-08
2.3181675e-08
2.7687365e-08
2.9107854e-08
2.9019986e-08
2.8119258e-08
2.7550388e-08
2.7264273e-08
2.7122437e-08
2.7017111e-08
2.674228e-08
2.6588678e-08
2.180736e-08
2.670063e-08
2.8640262e-08
2.8819283e-08
2.8010326e-08
2.7439108e-08
2.7113344e-08
2.6914834e-08
2.6698348e-08
2.6255829e-08
2.5949825e-08
2.0779959e-08
2.6150231e-08
2.8439893e-08
2.8681438e-08
2.7901741e-08
2.7293759e-08
2.6896414e-08
2.6592745e-08
2.6218794e-08
2.5557503e-08
2.5029235e-08
1.9480782e-08
2.5323766e-08
2.8061477e-08
2.8456136e-08
2.7741139e-08
2.70903e-08
2.6603398e-08
2.6139036e-08
2.5531139e-08
2.4622655e-08
2.3814306e-08
2.5053314e-08
2.7881875e-08
2.827706e-08
2.7556442e-08
2.6845135e-08
2.6243893e-08
2.5575064e-08
2.4714119e-08
2.3578279e-08
2.2483035e-08
2.7750681e-08
2.7736012e-08
2.7710724e-08
2.7663383e-08
2.7578817e-08
2.7433961e-08
2.71973e-08
2.6819374e-08
2.6240842e-08
2.5412882e-08
2.4308948e-08
2.2925261e-08
2.1364234e-08
1.9842079e-08
2.7737566e-08
2.770306e-08
2.7642706e-08
2.7526029e-08
2.7315921e-08
2.69573e-08
2.6385137e-08
2.553465e-08
2.4370273e-08
2.2912587e-08
2.1220576e-08
1.9397612e-08
1.7626205e-08
1.6059497e-08
2.7712034e-08
2.7641708e-08
2.7517153e-08
2.7278723e-08
2.6860065e-08
2.6176562e-08
2.5153187e-08
2.3757227e-08
2.203115e-08
2.0092409e-08
1.8087944e-08
1.6172951e-08
1.4495224e-08
1.3134319e-08
2.7675521e-08
2.7552654e-08
2.7335299e-08
2.692786e-08
2.6237573e-08
2.5167936e-08
2.3670715e-08
2.1786225e-08
1.9654781e-08
1.7473212e-08
1.5426936e-08
1.3650717e-08
1.2231589e-08
1.1203897e-08
2.7637592e-08
2.7457122e-08
2.7138109e-08
2.6550303e-08
2.5583974e-08
2.4150959e-08
2.2254519e-08
2.0017733e-08
1.765766e-08
1.5410694e-08
1.3454798e-08
1.1883534e-08
1.0749857e-08
1.0031701e-08
2.7610631e-08
2.7384093e-08
2.6980504e-08
2.624245e-08
2.5050312e-08
2.3333144e-08
2.1146239e-08
1.8680487e-08
1.6203193e-08
1.3961601e-08
1.21115e-08
1.0719501e-08
9.8266581e-09
9.3347245e-09
2.7602728e-08
2.7354008e-08
2.6902499e-08
2.6072719e-08
2.4735384e-08
2.2830815e-08
2.0450985e-08
1.7834542e-08
1.528172e-08
1.3044289e-08
1.1261169e-08
9.9902953e-09
9.2599694e-09
8.91156e-09
2.761466e-08
2.7371754e-08
2.6917065e-08
2.6065916e-08
2.467471e-08
2.2679462e-08
2.0186019e-08
1.7461361e-08
1.4832615e-08
1.2563405e-08
1.0788715e-08
9.5672321e-09
8.9187362e-09
8.648308e-09
2.7640992e-08
2.7427905e-08
2.7011886e-08
2.6208118e-08
2.4854348e-08
2.2863564e-08
2.0328178e-08
1.7523309e-08
1.4801194e-08
1.2451094e-08
1.0620684e-08
9.3708157e-09
8.728605e-09
8.4818665e-09
2.7673912e-08
2.7506243e-08
2.7161431e-08
2.6465418e-08
2.5239009e-08
2.3356655e-08
2.0865583e-08
1.8021297e-08
1.5193553e-08
1.2711432e-08
1.075683e-08
9.3950439e-09
8.6780476e-09
8.3888028e-09
2.7705603e-08
2.7587692e-08
2.7330387e-08
2.6781868e-08
2.5756923e-08
2.4087235e-08
2.174623e-08
1.8930513e-08
1.6006562e-08
1.3350493e-08
1.1204221e-08
9.6527909e-09
8.7619743e-09
8.3670354e-09
2.7730816e-08
2.7657013e-08
2.748577e-08
2.709736e-08
2.6320008e-08
2.4957459e-08
2.2898202e-08
2.0236123e-08
1.7287511e-08
1.445911e-08
1.2070947e-08
1.0265191e-08
9.0888617e-09
8.5157205e-09
2.7748176e-08
2.7707547e-08
2.7606528e-08
2.7361962e-08
2.6832906e-08
2.5822798e-08
2.4149958e-08
2.1777752e-08
1.8911035e-08
1.5941192e-08
1.3262735e-08
1.1108988e-08
9.5472576e-09
8.6491664e-09
2.7755918e-08
2.7732631e-08
2.7671932e-08
2.7516198e-08
2.7156891e-08
2.6417699e-08
2.5086567e-08
2.3027144e-08
2.0327418e-08
1.7341441e-08
1.4529299e-08
1.2243978e-08
1.0626127e-08
9.5880425e-09
2.7765861e-08
2.776308e-08
2.7755193e-08
2.7732772e-08
2.7672038e-08
2.7521098e-08
2.7181869e-08
2.6501656e-08
2.5296958e-08
2.3430396e-08
2.0931776e-08
1.8081492e-08
1.5332149e-08
1.3239096e-08
2.7767448e-08
2.7766698e-08
2.7764961e-08
2.7759977e-08
2.774507e-08
2.7702456e-08
2.7588603e-08
2.7315567e-08
2.6728808e-08
2.560351e-08
2.3734035e-08
2.1132797e-08
1.8319109e-08
1.569442e-08
2.7768164e-08
2.7767748e-08
2.77672e-08
2.7766148e-08
2.7763449e-08
2.7755331e-08
2.7729967e-08
2.7649696e-08
2.7425413e-08
2.6889992e-08
2.5808084e-08
2.391837e-08
2.1511118e-08
1.8661348e-08
2.7768632e-08
2.7768285e-08
2.7767909e-08
2.7767454e-08
2.7766725e-08
2.7765035e-08
2.7760094e-08
2.7743439e-08
2.7687434e-08
2.7501378e-08
2.6999798e-08
2.5902759e-08
2.419662e-08
2.155247e-08
2.7769034e-08
2.7768732e-08
2.7768418e-08
2.7768084e-08
2.7767708e-08
2.7767134e-08
2.7765966e-08
2.7762525e-08
2.7750339e-08
2.770368e-08
2.7539554e-08
2.7030762e-08
2.6034379e-08
2.4071887e-08
2.7769369e-08
2.7769089e-08
2.7768808e-08
2.7768511e-08
2.7768206e-08
2.7767831e-08
2.7767328e-08
2.7766379e-08
2.7763607e-08
2.7752822e-08
2.7710835e-08
2.7536023e-08
2.7066828e-08
2.5895439e-08
1.7519728e-08
1.459657e-08
1.2906688e-08
1.2597935e-08
1.3249441e-08
1.42823e-08
1.6785235e-08
2.1047264e-08
3.1906665e-08
3.5054743e-08
1.9650545e-08
9.1247534e-09
1.3180714e-08
3.5128982e-08
1.3919053e-08
1.2085014e-08
1.1526652e-08
1.1969013e-08
1.2713678e-08
1.4032154e-08
1.7707912e-08
2.3410873e-08
3.6273667e-08
3.4360701e-08
1.4620513e-08
6.143923e-09
1.1209711e-08
4.223988e-08
1.1535773e-08
1.0711902e-08
1.0837013e-08
1.1327917e-08
1.2287192e-08
1.3885229e-08
1.9205162e-08
2.7676939e-08
3.891119e-08
3.0503087e-08
1.0851566e-08
4.9776558e-09
9.9437128e-09
4.6764468e-08
1.0137439e-08
1.0001846e-08
1.0255879e-08
1.0849527e-08
1.1951993e-08
1.3943426e-08
2.1015545e-08
3.3058692e-08
3.9048178e-08
2.4724439e-08
8.0427694e-09
5.0230613e-09
9.4585199e-09
4.7605848e-08
9.3611783e-09
9.513362e-09
9.8014505e-09
1.0393322e-08
1.1653635e-08
1.4049918e-08
2.2555499e-08
3.9343797e-08
3.8093767e-08
1.9017491e-08
6.4376323e-09
5.5344183e-09
9.5605908e-09
4.567362e-08
8.9466656e-09
9.0551508e-09
9.4539618e-09
9.9808637e-09
1.1373091e-08
1.4031145e-08
2.3427546e-08
4.5842089e-08
3.7430586e-08
1.4231093e-08
5.5320562e-09
6.0335202e-09
1.0016061e-08
4.2323115e-08
8.6408321e-09
8.7379651e-09
9.1332907e-09
9.5877395e-09
1.102491e-08
1.3684387e-08
2.3889999e-08
5.1039981e-08
3.6792232e-08
1.1340279e-08
4.9729912e-09
6.2590255e-09
1.0387412e-08
3.9252518e-08
8.3958387e-09
8.5008138e-09
8.8409384e-09
9.2091129e-09
1.0517846e-08
1.2977759e-08
2.3811691e-08
5.3871163e-08
3.6980693e-08
1.001465e-08
4.5649959e-09
6.1075446e-09
1.0296495e-08
3.7221328e-08
8.2059407e-09
8.2874001e-09
8.5620677e-09
8.8244335e-09
9.9116256e-09
1.1853703e-08
2.2481236e-08
5.4307014e-08
3.9122045e-08
9.8894341e-09
4.2013161e-09
5.5383907e-09
9.5216688e-09
3.680746e-08
8.0789788e-09
8.1083914e-09
8.309702e-09
8.4572389e-09
9.2882523e-09
1.0494674e-08
1.9625943e-08
5.1504245e-08
4.458132e-08
1.1096052e-08
3.9544839e-09
4.6607982e-09
8.1598921e-09
3.7712971e-08
8.0142165e-09
7.9702053e-09
8.094357e-09
8.139614e-09
8.7064883e-09
9.2218285e-09
1.5902488e-08
4.5652991e-08
5.11759e-08
1.4195724e-08
3.928767e-09
3.6206415e-09
6.387005e-09
3.961913e-08
8.0768913e-09
7.9006202e-09
7.9349166e-09
7.8789616e-09
8.2384539e-09
8.2702559e-09
1.2185815e-08
3.6357307e-08
5.77086e-08
2.051127e-08
4.749027e-09
2.4562999e-09
4.8008655e-09
4.131138e-08
8.0250865e-09
7.8862943e-09
7.8630579e-09
7.7576519e-09
7.9396615e-09
7.6347925e-09
9.3264666e-09
2.6294023e-08
5.6200897e-08
3.1013227e-08
6.7284561e-09
1.6532599e-09
3.6380718e-09
4.0851791e-08
9.1453247e-09
8.3334601e-09
7.957292e-09
7.7124719e-09
7.6531101e-09
7.2480164e-09
7.343592e-09
1.61203e-08
4.2312506e-08
4.606499e-08
1.2524567e-08
1.5692078e-09
2.9562052e-09
3.5636534e-08
2.7772179e-08
2.7772151e-08
2.7772152e-08
2.7772153e-08
2.777211e-08
2.777211e-08
2.7772113e-08
2.7772113e-08
2.7772048e-08
2.7772049e-08
2.7772051e-08
2.7772052e-08
2.7772056e-08
2.7772058e-08
2.777195e-08
2.7771949e-08
2.7771954e-08
2.7771956e-08
2.7771959e-08
2.7771961e-08
2.7771968e-08
2.7771971e-08
2.7771782e-08
2.7771782e-08
2.7771784e-08
2.7771785e-08
2.7771793e-08
2.7771799e-08
2.7771804e-08
2.7771809e-08
2.7771822e-08
2.7771828e-08
2.777146e-08
2.7771456e-08
2.7771454e-08
2.7771457e-08
2.7771459e-08
2.7771474e-08
2.7771484e-08
2.7771495e-08
2.7771508e-08
2.7771523e-08
2.777154e-08
2.7771559e-08
2.7770714e-08
2.7770676e-08
2.777065e-08
2.7770631e-08
2.7770623e-08
2.7770628e-08
2.7770643e-08
2.7770685e-08
2.7770725e-08
2.7770768e-08
2.7770814e-08
2.7770861e-08
2.7770925e-08
2.7767879e-08
2.7767485e-08
2.7766699e-08
2.7765647e-08
2.7764622e-08
2.7763957e-08
2.7763865e-08
2.7764341e-08
2.7765204e-08
2.7766233e-08
2.7767161e-08
2.7767888e-08
2.7768512e-08
2.7768448e-08
2.7772246e-08
2.7772246e-08
2.7772245e-08
2.7772245e-08
2.7772239e-08
2.7772239e-08
2.7772238e-08
2.7772237e-08
2.7772236e-08
2.7772236e-08
2.7772229e-08
2.7772229e-08
2.7772229e-08
2.7772228e-08
2.7772227e-08
2.7772226e-08
2.7772226e-08
2.7772225e-08
2.7772216e-08
2.7772217e-08
2.7772217e-08
2.7772217e-08
2.7772217e-08
2.7772215e-08
2.7772214e-08
2.7772213e-08
2.7772212e-08
2.777221e-08
2.77722e-08
2.7772201e-08
2.77722e-08
2.7772201e-08
2.7772201e-08
2.7772201e-08
2.77722e-08
2.7772197e-08
2.7772196e-08
2.7772194e-08
2.7772193e-08
2.7772191e-08
2.777218e-08
2.7772179e-08
2.777218e-08
2.7772179e-08
2.777218e-08
2.7772179e-08
2.7772179e-08
2.7772178e-08
2.7772176e-08
2.7772174e-08
2.7772171e-08
2.7772169e-08
2.7772167e-08
2.7772165e-08
2.777215e-08
2.7772151e-08
2.777215e-08
2.777215e-08
2.7772149e-08
2.7772149e-08
2.7772149e-08
2.7772147e-08
2.7772143e-08
2.777214e-08
2.7772136e-08
2.7772133e-08
2.777213e-08
2.7772127e-08
2.7772109e-08
2.7772108e-08
2.7772109e-08
2.7772107e-08
2.7772108e-08
2.7772107e-08
2.7772105e-08
2.7772101e-08
2.7772094e-08
2.7772089e-08
2.7772083e-08
2.7772077e-08
2.7772072e-08
2.7772067e-08
2.7772047e-08
2.7772047e-08
2.7772045e-08
2.7772045e-08
2.7772045e-08
2.7772041e-08
2.7772036e-08
2.7772026e-08
2.7772014e-08
2.7771999e-08
2.7771976e-08
2.7771945e-08
2.7771911e-08
2.7771887e-08
2.777195e-08
2.7771948e-08
2.7771949e-08
2.7771946e-08
2.7771944e-08
2.7771935e-08
2.7771912e-08
2.7771869e-08
2.7771801e-08
2.7771677e-08
2.7771459e-08
2.7771098e-08
2.7770631e-08
2.777023e-08
2.7771782e-08
2.777178e-08
2.7771776e-08
2.7771772e-08
2.7771752e-08
2.7771716e-08
2.7771629e-08
2.7771452e-08
2.777093e-08
2.7769324e-08
2.7765513e-08
2.7758306e-08
2.7747105e-08
2.7736512e-08
2.777146e-08
2.777143e-08
2.7771347e-08
2.777115e-08
2.7770679e-08
2.7769673e-08
2.7767768e-08
2.7764839e-08
2.7761503e-08
2.7755911e-08
2.7729604e-08
2.7659927e-08
2.7572086e-08
2.7487552e-08
2.777077e-08
2.7770694e-08
2.7770147e-08
2.776793e-08
2.7761386e-08
2.7746666e-08
2.7719534e-08
2.7676205e-08
2.763154e-08
2.7678649e-08
2.7976258e-08
2.835898e-08
2.8263573e-08
2.779304e-08
2.7767909e-08
2.7768237e-08
2.7772457e-08
2.7781721e-08
2.7790411e-08
2.7772398e-08
2.7688693e-08
2.7541543e-08
2.7758177e-08
2.9487889e-08
3.3525978e-08
3.5672682e-08
2.2660048e-08
2.0243318e-08
2.6995806e-08
2.5824175e-08
2.6964137e-08
2.495028e-08
2.3488706e-08
2.2969742e-08
2.3542816e-08
2.4422884e-08
2.4969548e-08
2.4970431e-08
2.3376743e-08
2.6522121e-08
2.5415888e-08
2.7720887e-08
2.5477071e-08
2.3556853e-08
2.1270598e-08
2.0578339e-08
2.1250102e-08
2.2742096e-08
2.4338292e-08
2.530836e-08
2.517952e-08
2.2648914e-08
2.836519e-08
2.7509159e-08
2.639389e-08
2.5817153e-08
2.322739e-08
2.0753182e-08
1.9064975e-08
1.9032257e-08
2.0302869e-08
2.243472e-08
2.4596034e-08
2.5768219e-08
2.5173671e-08
2.1842003e-08
2.6367307e-08
2.6994202e-08
2.5609916e-08
2.371724e-08
2.1013931e-08
1.8718677e-08
1.7670174e-08
1.8141422e-08
1.9739374e-08
2.2468607e-08
2.5137953e-08
2.6220899e-08
2.4813553e-08
2.09628e-08
2.5338738e-08
2.6162909e-08
2.4497299e-08
2.1990696e-08
1.9212197e-08
1.7242012e-08
1.6723373e-08
1.7557769e-08
1.9387222e-08
2.2786951e-08
2.6002358e-08
2.657664e-08
2.3791061e-08
1.985893e-08
2.4955639e-08
2.5308865e-08
2.3223761e-08
2.0368721e-08
1.7654169e-08
1.6103471e-08
1.6034118e-08
1.7136496e-08
1.9193527e-08
2.3356666e-08
2.7206261e-08
2.6760439e-08
2.2117732e-08
1.8569451e-08
2.4816422e-08
2.4309098e-08
2.1807196e-08
1.8751999e-08
1.6287312e-08
1.519976e-08
1.5502794e-08
1.681942e-08
1.9089267e-08
2.4204575e-08
2.8697482e-08
2.6589429e-08
1.996143e-08
1.7346833e-08
2.5537153e-08
2.3125781e-08
2.0283136e-08
1.7198546e-08
1.511556e-08
1.4478276e-08
1.5082565e-08
1.6591004e-08
1.9107376e-08
2.5332969e-08
3.0426247e-08
2.5966591e-08
1.743865e-08
1.6267653e-08
2.65192e-08
2.172383e-08
1.8682722e-08
1.5806667e-08
1.4205318e-08
1.3972318e-08
1.4788554e-08
1.6419332e-08
1.9344937e-08
2.6758801e-08
3.2081576e-08
2.4731347e-08
1.4903909e-08
1.5286515e-08
2.8059579e-08
2.0350856e-08
1.7221176e-08
1.454066e-08
1.3315793e-08
1.3398168e-08
1.4334743e-08
1.6255285e-08
1.958258e-08
2.8226565e-08
3.3650392e-08
2.319879e-08
1.2579792e-08
1.443328e-08
2.9485381e-08
2.7769683e-08
2.7769909e-08
2.7770112e-08
2.7770263e-08
8.544288e-09
8.0446132e-09
8.332875e-09
8.0131005e-09
7.7027502e-09
7.2652174e-09
8.5480252e-09
1.3283718e-08
3.7266508e-08
5.6493611e-08
1.3308681e-08
1.3383522e-09
3.1627889e-09
3.2507267e-08
8.2809456e-09
7.8201494e-09
8.1136158e-09
7.7318557e-09
7.4614335e-09
7.1952448e-09
8.8496204e-09
1.2900514e-08
3.6672707e-08
5.8526774e-08
1.2747679e-08
1.0919108e-09
2.8176865e-09
3.3127163e-08
9.2916654e-09
8.7775261e-09
1.042808e-08
9.9469901e-09
1.2330562e-08
1.1806196e-08
1.5294769e-08
1.8869592e-08
2.777224e-08
2.777223e-08
2.777224e-08
2.777223e-08
2.7772218e-08
2.777224e-08
2.777223e-08
2.7772218e-08
2.7772203e-08
2.777224e-08
2.7772231e-08
2.7772219e-08
2.7772203e-08
2.7772182e-08
2.7772153e-08
2.777224e-08
2.777223e-08
2.7772218e-08
2.7772203e-08
2.7772182e-08
2.7772153e-08
2.7772112e-08
2.777224e-08
2.777223e-08
2.7772218e-08
2.7772203e-08
2.7772182e-08
2.7772153e-08
2.7772112e-08
2.7772047e-08
2.7772241e-08
2.7772231e-08
2.7772219e-08
2.7772203e-08
2.7772182e-08
2.7772153e-08
2.7772111e-08
2.7772046e-08
2.7771868e-08
2.7772242e-08
2.7772232e-08
2.777222e-08
2.7772205e-08
2.7772184e-08
2.7772156e-08
2.7772114e-08
2.7772049e-08
2.7771869e-08
2.7769827e-08
2.7772243e-08
2.7772234e-08
2.7772222e-08
2.7772206e-08
2.7772186e-08
2.7772158e-08
2.7772117e-08
2.7772053e-08
2.7771878e-08
2.777e-08
2.7728388e-08
2.7772244e-08
2.7772235e-08
2.7772224e-08
2.7772209e-08
2.7772189e-08
2.7772162e-08
2.7772122e-08
2.7772061e-08
2.7771891e-08
2.7769978e-08
2.7726503e-08
2.740315e-08
2.7772295e-08
2.7772295e-08
2.7772295e-08
2.7772295e-08
2.7772295e-08
2.7772295e-08
2.7772295e-08
2.7772295e-08
2.7772295e-08
2.7772295e-08
2.7772294e-08
2.7772294e-08
2.7772293e-08
2.7772295e-08
2.7772295e-08
2.7772295e-08
2.7772295e-08
2.7772295e-08
2.7772295e-08
2.7772294e-08
2.7772294e-08
2.7772293e-08
2.7772292e-08
2.7772288e-08
2.7772295e-08
2.7772295e-08
2.7772295e-08
2.7772294e-08
2.7772293e-08
2.7772292e-08
2.7772288e-08
2.7772275e-08
2.7772295e-08
2.7772294e-08
2.7772293e-08
2.7772292e-08
2.7772288e-08
2.7772275e-08
2.7772293e-08
2.7772292e-08
2.7772289e-08
2.7772275e-08
2.7772292e-08
2.7772289e-08
2.7772275e-08
2.7772289e-08
2.7772275e-08
2.7772289e-08
2.7772275e-08
2.7772276e-08
2.7772276e-08
2.7772276e-08
2.7772276e-08
8.0207986e-08
2.9092146e-08
2.9357286e-08
2.7795488e-08
2.7773137e-08
2.7771509e-08
2.7771724e-08
2.7771863e-08
2.7771959e-08
2.7772022e-08
2.777207e-08
2.7772107e-08
2.7772135e-08
2.7772159e-08
7.2322931e-08
2.8815026e-08
2.8978143e-08
2.7790225e-08
2.7772577e-08
2.7771595e-08
2.7771785e-08
2.777191e-08
2.7771994e-08
2.7772054e-08
2.7772096e-08
2.7772128e-08
2.7772153e-08
2.7772174e-08
6.6478983e-08
2.8636845e-08
2.8718304e-08
2.7786266e-08
2.7772283e-08
2.7771661e-08
2.7771833e-08
2.7771945e-08
2.7772022e-08
2.7772076e-08
2.7772116e-08
2.7772146e-08
2.7772167e-08
2.7772186e-08
6.1964281e-08
2.8497376e-08
2.8530787e-08
2.7783316e-08
2.7772116e-08
2.7771713e-08
2.7771871e-08
2.7771975e-08
2.7772045e-08
2.7772094e-08
2.7772131e-08
2.7772158e-08
2.7772179e-08
2.7772196e-08
5.8537964e-08
2.8390382e-08
2.8395435e-08
2.7781045e-08
2.777202e-08
2.7771757e-08
2.7771903e-08
2.7771999e-08
2.7772064e-08
2.7772109e-08
2.7772143e-08
2.7772168e-08
2.7772188e-08
2.7772203e-08
5.5943336e-08
2.8306223e-08
2.8296859e-08
2.7779293e-08
2.777196e-08
2.7771794e-08
2.777193e-08
2.7772019e-08
2.7772079e-08
2.7772122e-08
2.7772153e-08
2.7772177e-08
2.7772195e-08
2.7772209e-08
5.4081418e-08
2.8240294e-08
2.822649e-08
2.7777977e-08
2.7771934e-08
2.7771828e-08
2.7771953e-08
2.7772037e-08
2.7772093e-08
2.7772133e-08
2.7772162e-08
2.7772184e-08
2.7772201e-08
2.7772215e-08
2.7772295e-08
2.7772295e-08
2.7772295e-08
2.7772295e-08
2.7772295e-08
2.7772295e-08
2.7772295e-08
2.7772295e-08
2.7772295e-08
2.7772295e-08
2.7772295e-08
2.7772295e-08
2.7772295e-08
2.7772295e-08
2.7772295e-08
2.7772295e-08
2.7772295e-08
2.7772295e-08
2.7772295e-08
2.7772295e-08
2.7772295e-08
2.7772295e-08
2.7772295e-08
2.7772295e-08
2.7772295e-08
2.7772295e-08
2.7772295e-08
2.7772295e-08
2.7772295e-08
2.7772295e-08
2.7772295e-08
2.7772295e-08
2.7772295e-08
2.7772295e-08
2.7772295e-08
2.7772295e-08
2.7772295e-08
2.7772295e-08
2.7772295e-08
2.7772295e-08
2.7772295e-08
2.7772295e-08
2.7772295e-08
2.7772294e-08
2.7772294e-08
2.7772295e-08
2.7772295e-08
2.7772295e-08
2.7772295e-08
2.7772295e-08
2.7772295e-08
2.7772295e-08
2.7772295e-08
2.7772294e-08
2.7772294e-08
2.7772293e-08
2.7772292e-08
2.7772287e-08
2.7772295e-08
2.7772295e-08
2.7772295e-08
2.7772295e-08
2.7772295e-08
2.7772295e-08
2.7772295e-08
2.7772295e-08
2.7772294e-08
2.7772294e-08
2.7772293e-08
2.7772291e-08
2.7772287e-08
2.7772269e-08
2.7772295e-08
2.7772295e-08
2.7772295e-08
2.7772295e-08
2.7772295e-08
2.7772295e-08
2.7772295e-08
2.7772295e-08
2.7772294e-08
2.7772294e-08
2.7772293e-08
2.7772291e-08
2.7772287e-08
2.7772268e-08
2.7772295e-08
2.7772295e-08
2.7772295e-08
2.7772295e-08
2.7772295e-08
2.7772295e-08
2.7772295e-08
2.7772295e-08
2.7772294e-08
2.7772294e-08
2.7772293e-08
2.7772291e-08
2.7772287e-08
2.7772266e-08
2.7772295e-08
2.7772295e-08
2.7772295e-08
2.7772295e-08
2.7772295e-08
2.7772295e-08
2.7772294e-08
2.7772294e-08
2.7772293e-08
2.7772291e-08
2.7772286e-08
2.7772264e-08
2.7772295e-08
2.7772295e-08
2.7772295e-08
2.7772294e-08
2.7772294e-08
2.7772293e-08
2.7772291e-08
2.7772286e-08
2.7772262e-08
2.7772294e-08
2.7772294e-08
2.7772293e-08
2.7772291e-08
2.7772286e-08
2.777226e-08
2.7772291e-08
2.7772286e-08
2.7772258e-08
)
;

boundaryField
{
    Side
    {
        type            empty;
    }
    Inlet
    {
        type            calculated;
        value           nonuniform List<scalar> 
15
(
2.7772295e-08
2.7772295e-08
3.9592188e-07
3.9592188e-07
3.9592188e-07
3.9592188e-07
3.9592188e-07
3.9592188e-07
3.9592188e-07
3.9592188e-07
3.9592188e-07
3.9592188e-07
3.9592188e-07
3.9592188e-07
3.9592188e-07
)
;
    }
    Airfoil
    {
        type            compressible::alphatWallFunction;
        value           nonuniform List<scalar> 0();
    }
    Outlet
    {
        type            zeroGradient;
    }
    Flap
    {
        type            compressible::alphatWallFunction;
        value           nonuniform List<scalar> 
32
(
1.4067436e-06
1.315251e-06
1.2394562e-06
1.174995e-06
1.1228815e-06
1.081692e-06
1.0514909e-06
1.0312673e-06
1.0197942e-06
1.0173743e-06
1.0211429e-06
1.0315612e-06
1.0445263e-06
1.060423e-06
1.9417986e-06
1.8707342e-06
1.8038619e-06
1.7405081e-06
1.6806668e-06
1.6250649e-06
1.5736879e-06
1.5260264e-06
1.4817295e-06
1.0434448e-06
9.9745013e-07
1.341153e-05
1.3862458e-05
1.4270693e-05
1.4644869e-05
1.5000398e-05
1.5346665e-05
1.5688028e-05
)
;
    }
    procBoundary3to2
    {
        type            processor;
        value           nonuniform List<scalar> 
113
(
2.7772295e-08
2.7772295e-08
1.4982852e-08
1.4982852e-08
1.5580246e-08
1.5792824e-08
1.6274997e-08
1.6449594e-08
1.682023e-08
1.674014e-08
1.7006194e-08
1.6594994e-08
1.6605524e-08
1.6070758e-08
1.5915774e-08
1.5272183e-08
1.8564818e-08
1.8564818e-08
3.2807749e-08
2.7501038e-08
2.7489023e-08
3.2807749e-08
1.5504489e-08
1.1797663e-08
2.225865e-08
2.2252055e-08
2.999301e-08
3.1459353e-08
2.9120337e-08
2.5963479e-08
2.496717e-08
2.4874757e-08
2.4880572e-08
2.4796186e-08
2.4173903e-08
2.9861618e-08
2.9861618e-08
2.7772239e-08
2.7772239e-08
2.777223e-08
2.7772218e-08
2.7772218e-08
2.7772202e-08
2.7772202e-08
2.7772181e-08
2.7772181e-08
2.7772152e-08
2.777211e-08
2.777211e-08
2.7772046e-08
2.7772046e-08
2.7771866e-08
2.7771866e-08
2.7769759e-08
2.7769759e-08
2.7723329e-08
2.7723329e-08
2.7373282e-08
2.7373282e-08
2.7489023e-08
2.7772295e-08
2.7772295e-08
2.7772295e-08
2.7772295e-08
2.7772295e-08
2.7772295e-08
2.7772295e-08
2.7772294e-08
2.7772294e-08
2.7772293e-08
2.7772292e-08
2.7772292e-08
2.7772288e-08
2.7772275e-08
2.7772275e-08
5.2693868e-08
2.8193055e-08
2.8179686e-08
2.777735e-08
2.7771931e-08
2.7771853e-08
2.7771972e-08
2.7772051e-08
2.7772104e-08
2.7772142e-08
2.777217e-08
2.7772191e-08
2.7772207e-08
2.7772219e-08
2.7772295e-08
2.7772295e-08
2.7772295e-08
2.7772295e-08
2.7772295e-08
2.7772295e-08
2.7772295e-08
2.7772295e-08
2.7772295e-08
2.7772295e-08
2.7772295e-08
2.7772295e-08
2.7772295e-08
2.7772295e-08
2.7772295e-08
2.7772294e-08
2.7772294e-08
2.7772294e-08
2.7772293e-08
2.7772293e-08
2.7772292e-08
2.7772288e-08
2.777227e-08
2.777227e-08
)
;
    }
    procBoundary3to4
    {
        type            processor;
        value           nonuniform List<scalar> 
142
(
2.7770408e-08
2.7769685e-08
2.7770532e-08
2.7769433e-08
2.7769175e-08
2.7768905e-08
2.7768632e-08
2.776833e-08
2.7767964e-08
2.7767481e-08
2.7766609e-08
2.7764038e-08
2.7753733e-08
2.7708216e-08
2.7543851e-08
2.6988552e-08
2.2434865e-08
2.7772201e-08
2.7772182e-08
2.7772182e-08
2.7772183e-08
2.7772154e-08
2.7772154e-08
2.7772116e-08
2.7772116e-08
2.7772117e-08
2.7772062e-08
2.7772062e-08
2.7772064e-08
2.7771978e-08
2.7771978e-08
2.7771982e-08
2.7771839e-08
2.7771839e-08
2.7771848e-08
2.777159e-08
2.777159e-08
2.7770887e-08
2.7770887e-08
2.7772247e-08
2.7772247e-08
2.7772247e-08
2.7772276e-08
2.7772276e-08
2.7772276e-08
2.7772276e-08
2.7772239e-08
2.7772239e-08
2.7772239e-08
2.7772229e-08
2.7772229e-08
2.7772229e-08
2.7772217e-08
2.7772217e-08
2.7772217e-08
2.7772201e-08
2.7772201e-08
2.7772201e-08
2.7771138e-08
2.7771219e-08
2.7771285e-08
2.7771339e-08
2.7770408e-08
8.0665158e-09
7.7390257e-09
7.8975273e-09
7.5089738e-09
7.2772773e-09
7.1631729e-09
8.9925032e-09
1.431816e-08
4.2315621e-08
5.1285443e-08
9.9863767e-09
9.6468432e-10
2.4918373e-09
3.5229986e-08
8.3247397e-09
8.9825019e-09
1.0429641e-08
1.4743977e-08
1.4743977e-08
1.808777e-08
2.2434865e-08
2.7772277e-08
2.7772295e-08
2.7772295e-08
2.7772295e-08
2.7772295e-08
2.7772295e-08
2.7772295e-08
2.7772295e-08
2.7772295e-08
2.7772295e-08
2.7772295e-08
2.7772295e-08
2.7772295e-08
2.7772294e-08
2.7772294e-08
2.7772293e-08
2.7772293e-08
2.7772292e-08
2.7772292e-08
2.7772292e-08
2.7772289e-08
2.7772289e-08
2.7772289e-08
2.7772289e-08
2.7772289e-08
2.7772277e-08
9.0150534e-08
2.9512731e-08
2.9908269e-08
2.7803098e-08
2.7774308e-08
2.7771398e-08
2.7771647e-08
2.7771806e-08
2.777191e-08
2.7771983e-08
2.7772038e-08
2.777208e-08
2.7772113e-08
2.7772138e-08
2.7772295e-08
2.7772295e-08
2.7772295e-08
2.7772295e-08
2.7772295e-08
2.7772295e-08
2.7772295e-08
2.7772295e-08
2.7772295e-08
2.7772295e-08
2.7772295e-08
2.7772294e-08
2.7772294e-08
2.7772293e-08
2.7772293e-08
2.7772291e-08
2.7772285e-08
2.7772255e-08
)
;
    }
}


// ************************************************************************* //
