/*--------------------------------*- C++ -*----------------------------------*\
| =========                 |                                                 |
| \\      /  F ield         | OpenFOAM: The Open Source CFD Toolbox           |
|  \\    /   O peration     | Version:  2206                                  |
|   \\  /    A nd           | Website:  www.openfoam.com                      |
|    \\/     M anipulation  |                                                 |
\*---------------------------------------------------------------------------*/
FoamFile
{
    version     2.0;
    format      ascii;
    arch        "LSB;label=32;scalar=64";
    class       volScalarField;
    location    "0.02";
    object      nut;
}
// * * * * * * * * * * * * * * * * * * * * * * * * * * * * * * * * * * * * * //

dimensions      [0 2 -1 0 0 0 0];

internalField   nonuniform List<scalar> 
1396
(
2.8722707e-08
3.1370378e-08
2.9796346e-08
2.8927623e-08
2.8631526e-08
2.8060467e-08
2.7680657e-08
2.759864e-08
2.764709e-08
2.7707619e-08
2.7744659e-08
2.8841851e-08
3.2355341e-08
3.0221773e-08
2.9013399e-08
2.8544753e-08
2.79815e-08
2.766244e-08
2.759107e-08
2.7641471e-08
2.7701204e-08
2.7739281e-08
2.8448203e-08
3.1792996e-08
3.0590464e-08
2.9230104e-08
2.8492735e-08
2.7911284e-08
2.7622424e-08
2.7573706e-08
2.7629032e-08
2.768911e-08
2.7728638e-08
2.8155349e-08
3.1352437e-08
3.0493666e-08
2.9297788e-08
2.8447201e-08
2.7868262e-08
2.7598738e-08
2.7557373e-08
2.7614662e-08
2.7668113e-08
2.77086e-08
2.7400835e-08
3.0954991e-08
3.0467799e-08
2.9349279e-08
2.8369437e-08
2.7805458e-08
2.7559154e-08
2.7528631e-08
2.7586947e-08
2.7629831e-08
2.7670767e-08
2.7205698e-08
3.0281292e-08
3.038597e-08
2.9403623e-08
2.8339781e-08
2.7768613e-08
2.7527295e-08
2.7496206e-08
2.7545409e-08
2.7567459e-08
2.7603337e-08
2.6414577e-08
2.9682702e-08
3.0043218e-08
2.9330174e-08
2.8285327e-08
2.7722071e-08
2.748623e-08
2.7448964e-08
2.7480224e-08
2.7466846e-08
2.748965e-08
2.5647582e-08
2.9228016e-08
2.9907879e-08
2.93343e-08
2.8270659e-08
2.7681746e-08
2.7436308e-08
2.7379323e-08
2.7387178e-08
2.7313612e-08
2.730752e-08
2.4633667e-08
2.8473252e-08
2.9486352e-08
2.9174252e-08
2.8195422e-08
2.7616479e-08
2.7360959e-08
2.7274381e-08
2.7238956e-08
2.7085354e-08
2.7025767e-08
2.3521434e-08
2.8013737e-08
2.9290328e-08
2.9085997e-08
2.8127038e-08
2.7536415e-08
2.7255481e-08
2.7123789e-08
2.7021741e-08
2.6749105e-08
2.6597615e-08
2.2172278e-08
2.70389e-08
2.8823577e-08
2.8883724e-08
2.8017925e-08
2.7426622e-08
2.7106893e-08
2.6917202e-08
2.6705303e-08
2.6265529e-08
2.596257e-08
2.116928e-08
2.6501668e-08
2.86198e-08
2.874339e-08
2.7909053e-08
2.7282837e-08
2.6892391e-08
2.6596848e-08
2.6227734e-08
2.5570398e-08
2.5046315e-08
1.9880179e-08
2.5684108e-08
2.8234282e-08
2.8514847e-08
2.7748061e-08
2.708089e-08
2.6601965e-08
2.6145443e-08
2.5543381e-08
2.4639801e-08
2.3835946e-08
2.5428135e-08
2.8049646e-08
2.8332987e-08
2.756357e-08
2.6838138e-08
2.6245221e-08
2.5586828e-08
2.4732832e-08
2.3601943e-08
2.2510134e-08
2.7750837e-08
2.7736275e-08
2.7711222e-08
2.7664302e-08
2.7580455e-08
2.7436781e-08
2.7201886e-08
2.6826393e-08
2.6251153e-08
2.5427302e-08
2.4327149e-08
2.2945252e-08
2.1384629e-08
1.9863764e-08
2.7737874e-08
2.7703621e-08
2.764378e-08
2.7528061e-08
2.7319616e-08
2.6963641e-08
2.6395186e-08
2.5549116e-08
2.438901e-08
2.2934246e-08
2.1242566e-08
1.941704e-08
1.7643078e-08
1.6079156e-08
2.7712592e-08
2.7642776e-08
2.7519242e-08
2.7282669e-08
2.6867042e-08
2.6187877e-08
2.5169643e-08
2.377824e-08
2.2054372e-08
2.0114563e-08
1.810635e-08
1.618696e-08
1.4508956e-08
1.3159275e-08
2.7676423e-08
2.7554428e-08
2.7338784e-08
2.6934311e-08
2.624848e-08
2.5184382e-08
2.3692276e-08
2.1810148e-08
1.9676748e-08
1.7489881e-08
1.5438209e-08
1.366037e-08
1.2248521e-08
1.1244617e-08
2.7638836e-08
2.7459624e-08
2.7143028e-08
2.655923e-08
2.5598432e-08
2.4171289e-08
2.2278552e-08
2.0040666e-08
1.7674349e-08
1.5419319e-08
1.3458845e-08
1.1891269e-08
1.0774109e-08
1.0093915e-08
2.7612101e-08
2.7387128e-08
2.6986506e-08
2.6253228e-08
2.5067246e-08
2.3355672e-08
2.1170565e-08
1.8700367e-08
1.6213512e-08
1.3962464e-08
1.2109606e-08
1.0726732e-08
9.8589644e-09
9.4188466e-09
2.7604242e-08
2.7357234e-08
2.6908986e-08
2.6084413e-08
2.4753545e-08
2.2854202e-08
2.0474618e-08
1.7851217e-08
1.5286466e-08
1.3038644e-08
1.1254131e-08
9.99627e-09
9.2976478e-09
9.0123055e-09
2.7616038e-08
2.7374806e-08
2.6923381e-08
2.6077536e-08
2.4692945e-08
2.2702847e-08
2.020894e-08
1.7475862e-08
1.4833446e-08
1.255262e-08
1.0776553e-08
9.5696568e-09
8.9564588e-09
8.7559731e-09
2.764211e-08
2.7430497e-08
2.7017467e-08
2.6218775e-08
2.4871631e-08
2.2886318e-08
2.0350774e-08
1.7537172e-08
1.480015e-08
1.2436592e-08
1.0603049e-08
9.3667319e-09
8.7595778e-09
8.5841008e-09
2.7674721e-08
2.7508213e-08
2.7165889e-08
2.6474384e-08
2.525436e-08
2.3378033e-08
2.0888091e-08
1.8036091e-08
1.5192949e-08
1.2694993e-08
1.0733584e-08
9.3814228e-09
8.6950102e-09
8.4718679e-09
2.7706123e-08
2.7589031e-08
2.7333581e-08
2.6788714e-08
2.5769523e-08
2.4106283e-08
2.1768351e-08
1.8947408e-08
1.6008963e-08
1.3334957e-08
1.1176935e-08
9.628589e-09
8.760696e-09
8.4210441e-09
2.7731113e-08
2.765782e-08
2.7487806e-08
2.7102032e-08
2.632936e-08
2.4973092e-08
2.2918784e-08
2.0255134e-08
1.7294956e-08
1.4447964e-08
1.2042938e-08
1.023165e-08
9.0684682e-09
8.535806e-09
2.7748332e-08
2.7707974e-08
2.7607684e-08
2.7364797e-08
2.6839116e-08
2.5834417e-08
2.4167589e-08
2.179768e-08
1.8924271e-08
1.5937861e-08
1.3239209e-08
1.1071497e-08
9.5117874e-09
8.6390122e-09
2.7756008e-08
2.7732858e-08
2.7672551e-08
2.7517804e-08
2.7160659e-08
2.642542e-08
2.5099772e-08
2.3044759e-08
2.0343212e-08
1.7345038e-08
1.4512244e-08
1.2205583e-08
1.0574112e-08
9.5392412e-09
2.7765898e-08
2.776314e-08
2.7755327e-08
2.7733116e-08
2.7672922e-08
2.7523206e-08
2.7186337e-08
2.6509775e-08
2.5308932e-08
2.3443092e-08
2.0936864e-08
1.806757e-08
1.5297746e-08
1.319434e-08
2.7767475e-08
2.7766728e-08
2.7765e-08
2.7760052e-08
2.7745262e-08
2.7702988e-08
2.7590006e-08
2.7318811e-08
2.6735152e-08
2.5613838e-08
2.3745847e-08
2.1136194e-08
1.8303637e-08
1.5656795e-08
2.7768191e-08
2.7767774e-08
2.7767227e-08
2.7766176e-08
2.7763482e-08
2.7755385e-08
2.7730129e-08
2.7650369e-08
2.7427821e-08
2.6895939e-08
2.5818211e-08
2.3929511e-08
2.1513549e-08
1.8639119e-08
2.7768658e-08
2.7768311e-08
2.7767936e-08
2.7767481e-08
2.7766752e-08
2.7765066e-08
2.7760138e-08
2.7743543e-08
2.7687793e-08
2.7502922e-08
2.7004794e-08
2.5912166e-08
2.4205904e-08
2.1549297e-08
2.7769061e-08
2.7768758e-08
2.7768444e-08
2.7768111e-08
2.7767735e-08
2.7767162e-08
2.7765995e-08
2.7762564e-08
2.7750422e-08
2.7703972e-08
2.7540747e-08
2.7035229e-08
2.6042527e-08
2.407804e-08
2.7769396e-08
2.7769115e-08
2.7768835e-08
2.7768538e-08
2.7768233e-08
2.7767857e-08
2.7767355e-08
2.7766407e-08
2.7763643e-08
2.7752899e-08
2.7711086e-08
2.7537274e-08
2.7070597e-08
2.5902122e-08
1.7546902e-08
1.4660265e-08
1.3065582e-08
1.2971793e-08
1.3991335e-08
1.5523393e-08
1.876659e-08
2.4153067e-08
3.72661e-08
4.1675695e-08
2.3070659e-08
1.055736e-08
1.5274577e-08
4.1702381e-08
1.3962456e-08
1.2199304e-08
1.181159e-08
1.2567886e-08
1.3753213e-08
1.5651763e-08
2.0319162e-08
2.7563237e-08
4.3283061e-08
4.1740591e-08
1.7402176e-08
7.1950234e-09
1.3211903e-08
5.1483506e-08
1.1609029e-08
1.0906067e-08
1.1278425e-08
1.2142599e-08
1.3594709e-08
1.5855358e-08
2.2554277e-08
3.3319331e-08
4.7367937e-08
3.7690895e-08
1.3060312e-08
5.9117129e-09
1.1889328e-08
5.828856e-08
1.0254068e-08
1.0297405e-08
1.0852024e-08
1.185535e-08
1.34949e-08
1.6250504e-08
2.518228e-08
4.0563678e-08
4.8424812e-08
3.0963099e-08
9.7779564e-09
6.0627466e-09
1.1477117e-08
6.0518994e-08
9.527075e-09
9.9053315e-09
1.0524824e-08
1.1540074e-08
1.3382378e-08
1.664448e-08
2.7472161e-08
4.9097289e-08
4.8066909e-08
2.401449e-08
7.8917729e-09
6.778798e-09
1.1747844e-08
5.8942924e-08
9.1585009e-09
9.5213778e-09
1.0269064e-08
1.1224029e-08
1.3230787e-08
1.6839747e-08
2.8890376e-08
5.808303e-08
4.7963027e-08
1.8083009e-08
6.8394198e-09
7.4843268e-09
1.2454138e-08
5.5336303e-08
8.8872811e-09
9.2532723e-09
1.0002921e-08
1.0881916e-08
1.2951114e-08
1.6590015e-08
2.9768164e-08
6.5551438e-08
4.7721674e-08
1.4522517e-08
6.2035271e-09
7.8507726e-09
1.3058833e-08
5.1951345e-08
8.6585618e-09
9.0397619e-09
9.7325138e-09
1.0514517e-08
1.2440485e-08
1.5855485e-08
2.995438e-08
6.9983698e-08
4.8497416e-08
1.2954554e-08
5.7507526e-09
7.7391478e-09
1.3078532e-08
4.9905254e-08
8.465118e-09
8.8215319e-09
9.4440192e-09
1.0104617e-08
1.1773444e-08
1.4564589e-08
2.8517131e-08
7.1314275e-08
5.1878297e-08
1.296054e-08
5.3523972e-09
7.0847214e-09
1.2212403e-08
5.0065834e-08
8.3122658e-09
8.609344e-09
9.1491863e-09
9.6773449e-09
1.1042227e-08
1.2931936e-08
2.5034119e-08
6.8275106e-08
5.9720793e-08
1.4762722e-08
5.102299e-09
6.0053653e-09
1.0552221e-08
5.2028018e-08
8.2034406e-09
8.414338e-09
8.8645633e-09
9.275956e-09
1.0325485e-08
1.1365248e-08
2.0334849e-08
6.0960258e-08
6.9260594e-08
1.9207927e-08
5.1528362e-09
4.6961228e-09
8.3282835e-09
5.5472603e-08
8.2099099e-09
8.2656234e-09
8.6107352e-09
8.9066635e-09
9.708303e-09
1.0155427e-08
1.5561914e-08
4.8735133e-08
7.8743338e-08
2.823279e-08
6.3557965e-09
3.2053259e-09
6.3056341e-09
5.8535247e-08
8.0997353e-09
8.165562e-09
8.4392765e-09
8.6796115e-09
9.2747945e-09
9.3203975e-09
1.1869306e-08
3.5253784e-08
7.7282672e-08
4.3360325e-08
9.2148144e-09
2.1796836e-09
4.8181594e-09
5.8445409e-08
9.1403978e-09
8.4743636e-09
8.352742e-09
8.429846e-09
8.7492156e-09
8.6820257e-09
9.2086447e-09
2.1335372e-08
5.8297428e-08
6.5144997e-08
1.7533092e-08
2.0992682e-09
3.9541246e-09
5.1164784e-08
2.7772206e-08
2.7772178e-08
2.7772179e-08
2.7772179e-08
2.7772136e-08
2.7772136e-08
2.7772139e-08
2.777214e-08
2.7772075e-08
2.7772076e-08
2.7772077e-08
2.7772078e-08
2.7772083e-08
2.7772084e-08
2.7771976e-08
2.7771976e-08
2.777198e-08
2.7771983e-08
2.7771986e-08
2.7771988e-08
2.7771995e-08
2.7771998e-08
2.7771808e-08
2.7771809e-08
2.777181e-08
2.7771812e-08
2.7771819e-08
2.7771825e-08
2.7771831e-08
2.7771836e-08
2.7771848e-08
2.7771855e-08
2.7771487e-08
2.7771483e-08
2.7771481e-08
2.7771483e-08
2.7771486e-08
2.77715e-08
2.7771511e-08
2.7771522e-08
2.7771535e-08
2.777155e-08
2.7771566e-08
2.7771585e-08
2.7770741e-08
2.7770703e-08
2.7770677e-08
2.7770658e-08
2.777065e-08
2.7770655e-08
2.777067e-08
2.7770712e-08
2.7770751e-08
2.7770795e-08
2.777084e-08
2.7770888e-08
2.7770952e-08
2.7767907e-08
2.7767517e-08
2.7766736e-08
2.776569e-08
2.7764671e-08
2.776401e-08
2.7763918e-08
2.7764392e-08
2.7765249e-08
2.7766272e-08
2.7767195e-08
2.7767918e-08
2.776854e-08
2.7768475e-08
2.7772273e-08
2.7772272e-08
2.7772272e-08
2.7772271e-08
2.7772266e-08
2.7772265e-08
2.7772264e-08
2.7772264e-08
2.7772263e-08
2.7772262e-08
2.7772256e-08
2.7772256e-08
2.7772256e-08
2.7772255e-08
2.7772254e-08
2.7772253e-08
2.7772252e-08
2.7772251e-08
2.7772243e-08
2.7772244e-08
2.7772243e-08
2.7772243e-08
2.7772243e-08
2.7772242e-08
2.777224e-08
2.7772239e-08
2.7772238e-08
2.7772237e-08
2.7772227e-08
2.7772228e-08
2.7772227e-08
2.7772228e-08
2.7772227e-08
2.7772228e-08
2.7772226e-08
2.7772224e-08
2.7772223e-08
2.7772221e-08
2.7772219e-08
2.7772218e-08
2.7772206e-08
2.7772206e-08
2.7772206e-08
2.7772206e-08
2.7772206e-08
2.7772205e-08
2.7772205e-08
2.7772205e-08
2.7772203e-08
2.77722e-08
2.7772198e-08
2.7772196e-08
2.7772194e-08
2.7772191e-08
2.7772177e-08
2.7772177e-08
2.7772176e-08
2.7772177e-08
2.7772176e-08
2.7772176e-08
2.7772176e-08
2.7772173e-08
2.777217e-08
2.7772166e-08
2.7772163e-08
2.777216e-08
2.7772156e-08
2.7772154e-08
2.7772136e-08
2.7772135e-08
2.7772135e-08
2.7772134e-08
2.7772134e-08
2.7772134e-08
2.7772131e-08
2.7772128e-08
2.777212e-08
2.7772116e-08
2.777211e-08
2.7772104e-08
2.7772098e-08
2.7772094e-08
2.7772073e-08
2.7772074e-08
2.7772071e-08
2.7772072e-08
2.7772071e-08
2.7772068e-08
2.7772063e-08
2.7772053e-08
2.7772041e-08
2.7772026e-08
2.7772003e-08
2.7771972e-08
2.7771938e-08
2.7771915e-08
2.7771976e-08
2.7771975e-08
2.7771975e-08
2.7771972e-08
2.7771971e-08
2.7771962e-08
2.7771938e-08
2.7771895e-08
2.7771827e-08
2.7771701e-08
2.7771483e-08
2.7771121e-08
2.7770656e-08
2.7770262e-08
2.7771809e-08
2.7771807e-08
2.7771803e-08
2.7771798e-08
2.7771779e-08
2.7771741e-08
2.7771649e-08
2.7771462e-08
2.7770917e-08
2.7769269e-08
2.7765409e-08
2.7758224e-08
2.7747288e-08
2.7737148e-08
2.7771487e-08
2.7771457e-08
2.7771374e-08
2.7771174e-08
2.7770694e-08
2.7769658e-08
2.7767676e-08
2.7764589e-08
2.776097e-08
2.7754844e-08
2.7727942e-08
2.765944e-08
2.7576219e-08
2.7496606e-08
2.7770797e-08
2.7770719e-08
2.7770166e-08
2.7767929e-08
2.7761299e-08
2.7746283e-08
2.7718476e-08
2.7673705e-08
2.7625163e-08
2.7661356e-08
2.7937205e-08
2.8293707e-08
2.8198383e-08
2.777461e-08
2.7767924e-08
2.7768205e-08
2.7772236e-08
2.7780904e-08
2.7788035e-08
2.7766635e-08
2.7677393e-08
2.7524153e-08
2.7710691e-08
2.934917e-08
3.3203926e-08
3.5092267e-08
2.302533e-08
2.0592465e-08
2.7376008e-08
2.6081201e-08
2.7185258e-08
2.5180205e-08
2.387377e-08
2.3666618e-08
2.4662218e-08
2.5977711e-08
2.6811977e-08
2.7030107e-08
2.5079163e-08
2.66871e-08
2.5584149e-08
2.7888156e-08
2.5601997e-08
2.3697492e-08
2.1498673e-08
2.1032162e-08
2.2091242e-08
2.4083793e-08
2.6206805e-08
2.7484284e-08
2.7559906e-08
2.4520584e-08
3.0730876e-08
2.755918e-08
2.6443225e-08
2.5867027e-08
2.3291907e-08
2.0878038e-08
1.9331529e-08
1.9587127e-08
2.1309395e-08
2.4021337e-08
2.680406e-08
2.8282837e-08
2.7824623e-08
2.3845365e-08
2.8836893e-08
2.699974e-08
2.5623091e-08
2.3745989e-08
2.107848e-08
1.8869028e-08
1.8005478e-08
1.882291e-08
2.0928291e-08
2.432608e-08
2.7716251e-08
2.9071336e-08
2.7656451e-08
2.305143e-08
2.7951117e-08
2.6162104e-08
2.4510014e-08
2.2026104e-08
1.9296983e-08
1.7435285e-08
1.7146994e-08
1.8380629e-08
2.0770233e-08
2.4944225e-08
2.8991737e-08
2.9748402e-08
2.6702323e-08
2.1983282e-08
2.7783404e-08
2.5319877e-08
2.3246568e-08
2.0417595e-08
1.7764546e-08
1.6349937e-08
1.6558925e-08
1.8108519e-08
2.0780563e-08
2.5845153e-08
3.0659266e-08
3.0226622e-08
2.4974009e-08
2.0690122e-08
2.7898902e-08
2.4329986e-08
2.183863e-08
1.8815061e-08
1.6426564e-08
1.5509066e-08
1.6137578e-08
1.7945403e-08
2.0887511e-08
2.7064093e-08
3.2672696e-08
3.0284277e-08
2.2652454e-08
1.9453389e-08
2.8979756e-08
2.3151987e-08
2.0321001e-08
1.7276343e-08
1.5287976e-08
1.4858695e-08
1.5832106e-08
1.7874016e-08
2.1126494e-08
2.8607216e-08
3.4982378e-08
2.9792649e-08
1.986912e-08
1.8359983e-08
3.038046e-08
2.1752742e-08
1.872746e-08
1.5902434e-08
1.4420098e-08
1.4435639e-08
1.5660342e-08
1.7865122e-08
2.1609103e-08
3.0504349e-08
3.7237946e-08
2.8564895e-08
1.7047225e-08
1.7368301e-08
3.2468179e-08
2.0382113e-08
1.727335e-08
1.4653903e-08
1.3572099e-08
1.3937719e-08
1.5313528e-08
1.785836e-08
2.2092844e-08
3.2475247e-08
3.9436153e-08
2.6973261e-08
1.4453149e-08
1.6520222e-08
3.4469877e-08
2.776971e-08
2.7769936e-08
2.7770139e-08
2.7770289e-08
8.5847025e-09
8.2584417e-09
8.8422837e-09
8.8668644e-09
8.9279727e-09
8.844261e-09
1.090809e-08
1.7696784e-08
5.1405913e-08
8.1493071e-08
1.881196e-08
1.8086002e-09
4.2725767e-09
4.7048495e-08
8.3656753e-09
8.1149788e-09
8.7300129e-09
8.6914601e-09
8.7919159e-09
8.9102817e-09
1.14828e-08
1.745404e-08
5.1282684e-08
8.5264566e-08
1.8187408e-08
1.4845333e-09
3.8414846e-09
4.8725357e-08
9.2635967e-09
8.7584524e-09
1.0385579e-08
9.8874066e-09
1.2298204e-08
1.1742057e-08
1.5283008e-08
1.887715e-08
2.7772266e-08
2.7772257e-08
2.7772266e-08
2.7772257e-08
2.7772245e-08
2.7772267e-08
2.7772257e-08
2.7772245e-08
2.7772229e-08
2.7772267e-08
2.7772257e-08
2.7772245e-08
2.7772229e-08
2.7772208e-08
2.7772179e-08
2.7772267e-08
2.7772257e-08
2.7772245e-08
2.777223e-08
2.7772209e-08
2.777218e-08
2.7772138e-08
2.7772267e-08
2.7772257e-08
2.7772245e-08
2.777223e-08
2.7772209e-08
2.777218e-08
2.7772138e-08
2.7772074e-08
2.7772267e-08
2.7772258e-08
2.7772246e-08
2.777223e-08
2.7772209e-08
2.777218e-08
2.7772138e-08
2.7772073e-08
2.7771895e-08
2.7772268e-08
2.7772259e-08
2.7772247e-08
2.7772232e-08
2.7772211e-08
2.7772182e-08
2.7772141e-08
2.7772076e-08
2.7771896e-08
2.7769868e-08
2.7772269e-08
2.777226e-08
2.7772249e-08
2.7772233e-08
2.7772213e-08
2.7772184e-08
2.7772144e-08
2.777208e-08
2.7771905e-08
2.7770038e-08
2.7729412e-08
2.777227e-08
2.7772261e-08
2.777225e-08
2.7772235e-08
2.7772216e-08
2.7772188e-08
2.7772149e-08
2.7772087e-08
2.7771918e-08
2.7770018e-08
2.7727679e-08
2.7414937e-08
2.7772322e-08
2.7772322e-08
2.7772322e-08
2.7772322e-08
2.7772322e-08
2.7772322e-08
2.7772322e-08
2.7772322e-08
2.7772322e-08
2.7772321e-08
2.7772321e-08
2.7772321e-08
2.777232e-08
2.7772322e-08
2.7772322e-08
2.7772322e-08
2.7772322e-08
2.7772322e-08
2.7772321e-08
2.7772321e-08
2.7772321e-08
2.777232e-08
2.7772319e-08
2.7772315e-08
2.7772322e-08
2.7772321e-08
2.7772321e-08
2.7772321e-08
2.777232e-08
2.7772319e-08
2.7772315e-08
2.7772302e-08
2.7772321e-08
2.7772321e-08
2.777232e-08
2.7772319e-08
2.7772315e-08
2.7772302e-08
2.777232e-08
2.7772319e-08
2.7772315e-08
2.7772302e-08
2.7772319e-08
2.7772315e-08
2.7772302e-08
2.7772315e-08
2.7772302e-08
2.7772315e-08
2.7772302e-08
2.7772302e-08
2.7772302e-08
2.7772302e-08
2.7772303e-08
6.7675958e-08
2.8951313e-08
2.928142e-08
2.7794991e-08
2.7773121e-08
2.7771535e-08
2.777175e-08
2.777189e-08
2.7771985e-08
2.7772049e-08
2.7772097e-08
2.7772133e-08
2.7772162e-08
2.7772185e-08
6.2497397e-08
2.869634e-08
2.8922769e-08
2.7789837e-08
2.7772577e-08
2.7771622e-08
2.7771812e-08
2.7771936e-08
2.7772021e-08
2.7772081e-08
2.7772122e-08
2.7772155e-08
2.777218e-08
2.77722e-08
5.8556666e-08
2.8535418e-08
2.8676352e-08
2.7785962e-08
2.777229e-08
2.7771687e-08
2.7771859e-08
2.7771972e-08
2.7772049e-08
2.7772103e-08
2.7772143e-08
2.7772173e-08
2.7772194e-08
2.7772212e-08
5.5441266e-08
2.8409713e-08
2.8498147e-08
2.7783074e-08
2.7772129e-08
2.777174e-08
2.7771898e-08
2.7772001e-08
2.7772071e-08
2.7772121e-08
2.7772157e-08
2.7772184e-08
2.7772206e-08
2.7772223e-08
5.3032464e-08
2.8314003e-08
2.8369313e-08
2.7780853e-08
2.7772037e-08
2.7771783e-08
2.777193e-08
2.7772025e-08
2.777209e-08
2.7772136e-08
2.7772169e-08
2.7772195e-08
2.7772214e-08
2.777223e-08
5.1180682e-08
2.8239109e-08
2.8275384e-08
2.7779139e-08
2.7771979e-08
2.777182e-08
2.7771956e-08
2.7772046e-08
2.7772106e-08
2.7772149e-08
2.777218e-08
2.7772203e-08
2.7772222e-08
2.7772236e-08
4.9824499e-08
2.8180885e-08
2.8208304e-08
2.7777854e-08
2.7771954e-08
2.7771855e-08
2.777198e-08
2.7772063e-08
2.777212e-08
2.777216e-08
2.7772189e-08
2.7772211e-08
2.7772228e-08
2.7772242e-08
2.7772322e-08
2.7772322e-08
2.7772322e-08
2.7772322e-08
2.7772322e-08
2.7772322e-08
2.7772322e-08
2.7772322e-08
2.7772322e-08
2.7772322e-08
2.7772322e-08
2.7772322e-08
2.7772322e-08
2.7772322e-08
2.7772322e-08
2.7772322e-08
2.7772322e-08
2.7772322e-08
2.7772322e-08
2.7772322e-08
2.7772322e-08
2.7772322e-08
2.7772322e-08
2.7772322e-08
2.7772322e-08
2.7772322e-08
2.7772322e-08
2.7772322e-08
2.7772322e-08
2.7772322e-08
2.7772322e-08
2.7772322e-08
2.7772322e-08
2.7772321e-08
2.7772321e-08
2.7772322e-08
2.7772322e-08
2.7772322e-08
2.7772322e-08
2.7772322e-08
2.7772322e-08
2.7772321e-08
2.7772321e-08
2.7772321e-08
2.7772321e-08
2.7772322e-08
2.7772322e-08
2.7772322e-08
2.7772322e-08
2.7772322e-08
2.7772322e-08
2.7772321e-08
2.7772321e-08
2.7772321e-08
2.7772321e-08
2.777232e-08
2.7772318e-08
2.7772314e-08
2.7772322e-08
2.7772322e-08
2.7772322e-08
2.7772322e-08
2.7772322e-08
2.7772322e-08
2.7772321e-08
2.7772321e-08
2.7772321e-08
2.7772321e-08
2.777232e-08
2.7772318e-08
2.7772314e-08
2.7772295e-08
2.7772322e-08
2.7772322e-08
2.7772322e-08
2.7772322e-08
2.7772322e-08
2.7772322e-08
2.7772321e-08
2.7772321e-08
2.7772321e-08
2.7772321e-08
2.777232e-08
2.7772318e-08
2.7772313e-08
2.7772294e-08
2.7772322e-08
2.7772322e-08
2.7772322e-08
2.7772322e-08
2.7772322e-08
2.7772322e-08
2.7772321e-08
2.7772321e-08
2.7772321e-08
2.7772321e-08
2.777232e-08
2.7772318e-08
2.7772313e-08
2.7772293e-08
2.7772322e-08
2.7772322e-08
2.7772322e-08
2.7772322e-08
2.7772321e-08
2.7772321e-08
2.7772321e-08
2.7772321e-08
2.777232e-08
2.7772318e-08
2.7772313e-08
2.7772291e-08
2.7772322e-08
2.7772321e-08
2.7772321e-08
2.7772321e-08
2.7772321e-08
2.777232e-08
2.7772318e-08
2.7772313e-08
2.7772289e-08
2.7772321e-08
2.7772321e-08
2.777232e-08
2.7772318e-08
2.7772313e-08
2.7772287e-08
2.7772318e-08
2.7772312e-08
2.7772284e-08
)
;

boundaryField
{
    Side
    {
        type            empty;
    }
    Inlet
    {
        type            inletOutlet;
        inletValue      uniform 3.9592226e-07;
        value           nonuniform List<scalar> 
15
(
2.7772322e-08
2.7772322e-08
3.9592226e-07
3.9592226e-07
3.9592226e-07
3.9592226e-07
3.9592226e-07
3.9592226e-07
3.9592226e-07
3.9592226e-07
3.9592226e-07
3.9592226e-07
3.9592226e-07
3.9592226e-07
3.9592226e-07
)
;
    }
    Airfoil
    {
        type            nutUSpaldingWallFunction;
        value           nonuniform List<scalar> 0();
    }
    Outlet
    {
        type            zeroGradient;
    }
    Flap
    {
        type            nutUSpaldingWallFunction;
        value           nonuniform List<scalar> 
32
(
1.4859312e-06
1.4201005e-06
1.364824e-06
1.3201747e-06
1.2851457e-06
1.2603488e-06
1.2461162e-06
1.2426118e-06
1.2490291e-06
1.2653562e-06
1.290676e-06
1.3244241e-06
1.3641937e-06
1.4086196e-06
1.8290518e-06
1.7868567e-06
1.7454247e-06
1.7062454e-06
1.6686462e-06
1.6324073e-06
1.5985991e-06
1.5675947e-06
1.5383147e-06
1.4071103e-06
1.3626245e-06
8.9518988e-06
9.555905e-06
1.009819e-05
1.0588548e-05
1.1034249e-05
1.144261e-05
1.1811891e-05
)
;
    }
    procBoundary3to2
    {
        type            processor;
        value           nonuniform List<scalar> 
113
(
2.7772322e-08
2.7772322e-08
1.5818612e-08
1.5818612e-08
1.633031e-08
1.6463712e-08
1.685812e-08
1.694101e-08
1.7233292e-08
1.7076233e-08
1.7287247e-08
1.6827229e-08
1.6812097e-08
1.6259879e-08
1.6105946e-08
1.5473875e-08
1.8975615e-08
1.8975615e-08
3.2366676e-08
2.8024906e-08
2.7572635e-08
3.2366676e-08
1.5857184e-08
1.2060479e-08
2.2666276e-08
2.2588495e-08
3.0305593e-08
3.1702438e-08
2.9444122e-08
2.6522599e-08
2.5873501e-08
2.6135474e-08
2.6398119e-08
2.6515352e-08
2.5685537e-08
3.2103138e-08
3.2103138e-08
2.7772266e-08
2.7772266e-08
2.7772256e-08
2.7772244e-08
2.7772244e-08
2.7772228e-08
2.7772228e-08
2.7772207e-08
2.7772207e-08
2.7772178e-08
2.7772137e-08
2.7772137e-08
2.7772073e-08
2.7772073e-08
2.7771893e-08
2.7771893e-08
2.7769801e-08
2.7769801e-08
2.7724524e-08
2.7724524e-08
2.738579e-08
2.738579e-08
2.7572635e-08
2.7772322e-08
2.7772322e-08
2.7772322e-08
2.7772322e-08
2.7772322e-08
2.7772322e-08
2.7772321e-08
2.7772321e-08
2.7772321e-08
2.777232e-08
2.7772319e-08
2.7772319e-08
2.7772315e-08
2.7772302e-08
2.7772302e-08
4.8770686e-08
2.8141168e-08
2.8163641e-08
2.7777247e-08
2.7771952e-08
2.777188e-08
2.7771999e-08
2.7772078e-08
2.7772131e-08
2.7772169e-08
2.7772196e-08
2.7772217e-08
2.7772233e-08
2.7772246e-08
2.7772322e-08
2.7772322e-08
2.7772322e-08
2.7772322e-08
2.7772322e-08
2.7772322e-08
2.7772322e-08
2.7772322e-08
2.7772322e-08
2.7772322e-08
2.7772322e-08
2.7772321e-08
2.7772321e-08
2.7772321e-08
2.7772321e-08
2.7772321e-08
2.7772321e-08
2.7772321e-08
2.777232e-08
2.777232e-08
2.7772318e-08
2.7772314e-08
2.7772297e-08
2.7772297e-08
)
;
    }
    procBoundary3to4
    {
        type            processor;
        value           nonuniform List<scalar> 
142
(
2.7770434e-08
2.7769712e-08
2.7770559e-08
2.7769459e-08
2.7769201e-08
2.7768932e-08
2.7768658e-08
2.7768357e-08
2.7767991e-08
2.7767507e-08
2.7766637e-08
2.7764073e-08
2.7753814e-08
2.7708487e-08
2.7544909e-08
2.6992611e-08
2.2450317e-08
2.7772228e-08
2.7772208e-08
2.7772208e-08
2.7772209e-08
2.7772181e-08
2.7772181e-08
2.7772143e-08
2.7772143e-08
2.7772144e-08
2.7772088e-08
2.7772088e-08
2.777209e-08
2.7772005e-08
2.7772005e-08
2.7772009e-08
2.7771866e-08
2.7771866e-08
2.7771875e-08
2.7771617e-08
2.7771617e-08
2.7770913e-08
2.7770913e-08
2.7772274e-08
2.7772274e-08
2.7772274e-08
2.7772303e-08
2.7772303e-08
2.7772303e-08
2.7772303e-08
2.7772266e-08
2.7772266e-08
2.7772266e-08
2.7772256e-08
2.7772256e-08
2.7772256e-08
2.7772243e-08
2.7772244e-08
2.7772244e-08
2.7772227e-08
2.7772228e-08
2.7772228e-08
2.7771164e-08
2.7771246e-08
2.7771311e-08
2.7771366e-08
2.7770434e-08
8.2127535e-09
8.1273517e-09
8.6240716e-09
8.5778402e-09
8.7194486e-09
9.0180222e-09
1.1852976e-08
1.9664996e-08
6.0008833e-08
7.529646e-08
1.4291297e-08
1.316487e-09
3.4268794e-09
5.2643784e-08
8.3344403e-09
8.9314348e-09
1.0359314e-08
1.4699635e-08
1.4699635e-08
1.8074339e-08
2.2450317e-08
2.7772303e-08
2.7772322e-08
2.7772322e-08
2.7772322e-08
2.7772322e-08
2.7772322e-08
2.7772322e-08
2.7772322e-08
2.7772322e-08
2.7772322e-08
2.7772321e-08
2.7772321e-08
2.7772321e-08
2.7772321e-08
2.7772321e-08
2.777232e-08
2.777232e-08
2.7772319e-08
2.7772319e-08
2.7772319e-08
2.7772315e-08
2.7772315e-08
2.7772315e-08
2.7772315e-08
2.7772315e-08
2.7772303e-08
7.392906e-08
2.9340969e-08
2.9800522e-08
2.7802442e-08
2.7774262e-08
2.7771424e-08
2.7771674e-08
2.7771832e-08
2.7771937e-08
2.777201e-08
2.7772065e-08
2.7772107e-08
2.7772139e-08
2.7772164e-08
2.7772322e-08
2.7772322e-08
2.7772322e-08
2.7772322e-08
2.7772322e-08
2.7772322e-08
2.7772322e-08
2.7772322e-08
2.7772321e-08
2.7772321e-08
2.7772321e-08
2.7772321e-08
2.7772321e-08
2.777232e-08
2.777232e-08
2.7772318e-08
2.7772312e-08
2.7772282e-08
)
;
    }
}


// ************************************************************************* //
