/*--------------------------------*- C++ -*----------------------------------*\
| =========                 |                                                 |
| \\      /  F ield         | OpenFOAM: The Open Source CFD Toolbox           |
|  \\    /   O peration     | Version:  2206                                  |
|   \\  /    A nd           | Website:  www.openfoam.com                      |
|    \\/     M anipulation  |                                                 |
\*---------------------------------------------------------------------------*/
FoamFile
{
    version     2.0;
    format      ascii;
    arch        "LSB;label=32;scalar=64";
    class       volScalarField;
    location    "0.02";
    object      nuTilda;
}
// * * * * * * * * * * * * * * * * * * * * * * * * * * * * * * * * * * * * * //

dimensions      [0 2 -1 0 0 0 0];

internalField   nonuniform List<scalar> 
1396
(
4.0552682e-07
4.1279467e-07
4.0434418e-07
3.9962317e-07
3.9813397e-07
3.9617372e-07
3.9509977e-07
3.9506508e-07
3.9539073e-07
3.9566943e-07
3.9581688e-07
4.0382401e-07
4.1517403e-07
4.0621266e-07
4.0035133e-07
3.9790685e-07
3.9586927e-07
3.9502213e-07
3.950392e-07
3.9537691e-07
3.9564607e-07
3.9579692e-07
4.0166089e-07
4.1260776e-07
4.074164e-07
4.0126792e-07
3.978092e-07
3.9562338e-07
3.9487242e-07
3.9497761e-07
3.9533504e-07
3.9560087e-07
3.9575676e-07
3.9966195e-07
4.1074464e-07
4.070723e-07
4.0161919e-07
3.9773149e-07
3.9550295e-07
3.9479544e-07
3.9492402e-07
3.9528649e-07
3.955217e-07
3.9568054e-07
3.9652943e-07
4.0931511e-07
4.0698364e-07
4.0191925e-07
3.9755022e-07
3.9531746e-07
3.9466173e-07
3.9482337e-07
3.9518511e-07
3.9537611e-07
3.9553667e-07
3.9597797e-07
4.0729171e-07
4.0683675e-07
4.0222414e-07
3.9752997e-07
3.9522415e-07
3.9455867e-07
3.9470978e-07
3.9502987e-07
3.9513678e-07
3.9527915e-07
3.9355754e-07
4.0579222e-07
4.0584892e-07
4.0203455e-07
3.9738797e-07
3.9508429e-07
3.9442027e-07
3.9453927e-07
3.9478318e-07
3.9474973e-07
3.9484167e-07
3.914795e-07
4.0492984e-07
4.0563915e-07
4.0209057e-07
3.9736333e-07
3.9495671e-07
3.9424686e-07
3.9428222e-07
3.9441628e-07
3.9415575e-07
3.9413389e-07
3.8844566e-07
4.0286909e-07
4.0438174e-07
4.0152798e-07
3.9709485e-07
3.9472761e-07
3.9397535e-07
3.9388936e-07
3.9383506e-07
3.9325669e-07
3.930231e-07
3.8488182e-07
4.0173321e-07
4.0385923e-07
4.0121342e-07
3.9684382e-07
3.9444165e-07
3.9358919e-07
3.9331917e-07
3.9297794e-07
3.9191948e-07
3.9131146e-07
3.8007371e-07
3.9847507e-07
4.0222226e-07
4.0045982e-07
3.9643997e-07
3.9404643e-07
3.9303814e-07
3.9249496e-07
3.917224e-07
3.8997215e-07
3.8873001e-07
3.7656373e-07
3.9679575e-07
4.0143889e-07
3.9990996e-07
3.9603292e-07
3.9351611e-07
3.9222066e-07
3.9121887e-07
3.8978588e-07
3.8711176e-07
3.8490568e-07
3.7141687e-07
3.9398271e-07
3.9992974e-07
3.9901589e-07
3.9542086e-07
3.9274282e-07
3.9108086e-07
3.8938633e-07
3.8696419e-07
3.8317232e-07
3.7965145e-07
3.9339516e-07
3.9917963e-07
3.9828767e-07
3.9471343e-07
3.9179535e-07
3.8963203e-07
3.8709983e-07
3.8355169e-07
3.786169e-07
3.7359902e-07
3.9584136e-07
3.9578625e-07
3.9569158e-07
3.9551328e-07
3.9519276e-07
3.9463978e-07
3.9372603e-07
3.9224365e-07
3.8993049e-07
3.8653406e-07
3.8182783e-07
3.7560858e-07
3.6814236e-07
3.603564e-07
3.9579301e-07
3.9566349e-07
3.9543663e-07
3.9499578e-07
3.9419546e-07
3.9281207e-07
3.9056054e-07
3.871135e-07
3.821985e-07
3.7571162e-07
3.6767219e-07
3.5830959e-07
3.4840945e-07
3.3894371e-07
3.9569813e-07
3.9543399e-07
3.9496447e-07
3.9405795e-07
3.9244375e-07
3.8974936e-07
3.8557693e-07
3.7960485e-07
3.7173562e-07
3.6218458e-07
3.513971e-07
3.4004719e-07
3.2910265e-07
3.1954577e-07
3.9556233e-07
3.951001e-07
3.9427712e-07
3.9271387e-07
3.9000711e-07
3.8566805e-07
3.7928353e-07
3.7067988e-07
3.600775e-07
3.4810316e-07
3.3563192e-07
3.2360673e-07
3.1303904e-07
3.0495449e-07
3.9542115e-07
3.9474107e-07
3.9352758e-07
3.9125082e-07
3.8739468e-07
3.8140814e-07
3.729482e-07
3.6206747e-07
3.4932457e-07
3.3572341e-07
3.2244774e-07
3.1059116e-07
3.012563e-07
2.9527323e-07
3.9532079e-07
3.9446625e-07
3.9292587e-07
3.9004595e-07
3.8522119e-07
3.7787345e-07
3.6775153e-07
3.5512357e-07
3.4083887e-07
3.2618168e-07
3.1253879e-07
3.0115534e-07
2.9327408e-07
2.8923764e-07
3.9529149e-07
3.9435336e-07
3.9262805e-07
3.8937864e-07
3.8392379e-07
3.7565581e-07
3.6438081e-07
3.5052057e-07
3.3513376e-07
3.1970807e-07
3.0578223e-07
2.9479031e-07
2.8805309e-07
2.8544324e-07
3.9533613e-07
3.9442106e-07
3.9268575e-07
3.8935547e-07
3.8367844e-07
3.7498921e-07
3.6308385e-07
3.4844556e-07
3.3225717e-07
3.1615668e-07
3.018182e-07
2.9086542e-07
2.8469954e-07
2.8290136e-07
3.9543431e-07
3.9463327e-07
3.9305069e-07
3.8992082e-07
3.8443217e-07
3.7582852e-07
3.6381365e-07
3.488247e-07
3.3207567e-07
3.1530913e-07
3.0033362e-07
2.8891398e-07
2.8264005e-07
2.8100847e-07
3.9555681e-07
3.9492813e-07
3.9362232e-07
3.9093272e-07
3.8601986e-07
3.7802264e-07
3.6647114e-07
3.5163575e-07
3.3463939e-07
3.1725675e-07
3.0142397e-07
2.8897917e-07
2.8181979e-07
2.7953941e-07
3.9567451e-07
3.9523362e-07
3.9426384e-07
3.9216307e-07
3.8811939e-07
3.8119082e-07
3.706844e-07
3.5658007e-07
3.3976611e-07
3.21936e-07
3.0512804e-07
2.9123585e-07
2.8234077e-07
2.7864642e-07
3.9576799e-07
3.9549272e-07
3.9485013e-07
3.9337522e-07
3.9035641e-07
3.8484884e-07
3.759629e-07
3.6331115e-07
3.4738542e-07
3.2961691e-07
3.1202727e-07
2.966039e-07
2.8525069e-07
2.794179e-07
3.9583237e-07
3.95681e-07
3.9530348e-07
3.9438132e-07
3.9235527e-07
3.8837253e-07
3.8143522e-07
3.7078403e-07
3.5638195e-07
3.3919224e-07
3.2101693e-07
3.0388116e-07
2.8961353e-07
2.8053064e-07
3.9586109e-07
3.9577427e-07
3.9554756e-07
3.9496262e-07
3.9359848e-07
3.9073369e-07
3.8537787e-07
3.7655507e-07
3.6383555e-07
3.4783565e-07
3.3024925e-07
3.1338214e-07
2.9934347e-07
2.8903211e-07
3.9589814e-07
3.958878e-07
3.9585847e-07
3.9577484e-07
3.9554699e-07
3.9497564e-07
3.9367256e-07
3.9099443e-07
3.8605479e-07
3.7789982e-07
3.6592545e-07
3.50483e-07
3.3346584e-07
3.1848991e-07
3.9590403e-07
3.9590122e-07
3.9589474e-07
3.9587617e-07
3.9582057e-07
3.9566109e-07
3.9523218e-07
3.9419033e-07
3.9190053e-07
3.8734858e-07
3.793103e-07
3.6699886e-07
3.5195576e-07
3.3571781e-07
3.9590672e-07
3.9590515e-07
3.9590309e-07
3.9589912e-07
3.9588895e-07
3.9585834e-07
3.9576296e-07
3.9546236e-07
3.9462016e-07
3.9256562e-07
3.882411e-07
3.8018858e-07
3.689131e-07
3.5363765e-07
3.9590848e-07
3.9590717e-07
3.9590576e-07
3.9590404e-07
3.959013e-07
3.9589495e-07
3.9587637e-07
3.9581378e-07
3.9560332e-07
3.9490433e-07
3.9299743e-07
3.8864168e-07
3.8139703e-07
3.68948e-07
3.9590999e-07
3.9590885e-07
3.9590767e-07
3.9590642e-07
3.95905e-07
3.9590284e-07
3.9589845e-07
3.9588552e-07
3.9583975e-07
3.9566451e-07
3.950471e-07
3.9311243e-07
3.8916203e-07
3.8076346e-07
3.9591125e-07
3.959102e-07
3.9590914e-07
3.9590802e-07
3.9590688e-07
3.9590546e-07
3.9590357e-07
3.959e-07
3.9588959e-07
3.9584911e-07
3.9569126e-07
3.9503444e-07
3.9324096e-07
3.8855191e-07
3.4759284e-07
3.2996931e-07
3.1968991e-07
3.2136726e-07
3.327508e-07
3.4831733e-07
3.73399e-07
4.0738326e-07
4.6646905e-07
4.9097231e-07
4.1376768e-07
3.3008783e-07
3.6397282e-07
4.8711158e-07
3.2540281e-07
3.1309322e-07
3.119376e-07
3.2146448e-07
3.3533597e-07
3.5393242e-07
3.8710568e-07
4.2880167e-07
4.9265528e-07
4.987427e-07
3.8573895e-07
2.9875297e-07
3.5281972e-07
5.268532e-07
3.0843888e-07
3.037927e-07
3.0988156e-07
3.2163883e-07
3.3796006e-07
3.5938669e-07
4.032356e-07
4.5744532e-07
5.1166189e-07
4.9032652e-07
3.5824315e-07
2.8486456e-07
3.4495507e-07
5.5469987e-07
2.9766334e-07
2.9998372e-07
3.0891095e-07
3.2240586e-07
3.4051643e-07
3.6525343e-07
4.1978568e-07
4.8807652e-07
5.2092565e-07
4.679316e-07
3.3213781e-07
2.888754e-07
3.4387407e-07
5.6835186e-07
2.9168568e-07
2.9799662e-07
3.0828713e-07
3.2229533e-07
3.4226932e-07
3.7002859e-07
4.3307853e-07
5.1971938e-07
5.2580303e-07
4.3740848e-07
3.1391426e-07
2.9962944e-07
3.477061e-07
5.6938424e-07
2.8869804e-07
2.9588939e-07
3.0760541e-07
3.2152551e-07
3.4285757e-07
3.7293009e-07
4.4106846e-07
5.4982928e-07
5.3087634e-07
4.049857e-07
3.0265265e-07
3.0942849e-07
3.5486415e-07
5.6350834e-07
2.8651542e-07
2.9426125e-07
3.0626782e-07
3.1984555e-07
3.4189777e-07
3.7257029e-07
4.4626213e-07
5.7346494e-07
5.338247e-07
3.8254097e-07
2.9573489e-07
3.1492898e-07
3.6104726e-07
5.5741768e-07
2.8447328e-07
2.9261609e-07
3.0435257e-07
3.1729484e-07
3.3869597e-07
3.6871395e-07
4.4854324e-07
5.8747698e-07
5.3914356e-07
3.7279425e-07
2.911073e-07
3.1508626e-07
3.6272723e-07
5.5550085e-07
2.8242283e-07
2.904213e-07
3.0172339e-07
3.1379644e-07
3.3371978e-07
3.6058935e-07
4.4366971e-07
5.9322604e-07
5.5205069e-07
3.7591603e-07
2.8744402e-07
3.089384e-07
3.5755951e-07
5.6122915e-07
2.8032724e-07
2.8770359e-07
2.9834635e-07
3.0942261e-07
3.2735557e-07
3.4880257e-07
4.2821036e-07
5.8738747e-07
5.7594917e-07
3.9331049e-07
2.8622373e-07
2.9617404e-07
3.4487096e-07
5.7253234e-07
2.7835415e-07
2.8466401e-07
2.9445809e-07
3.0466133e-07
3.2031764e-07
3.3595916e-07
4.0369431e-07
5.6885164e-07
6.0167121e-07
4.2700791e-07
2.9071584e-07
2.7787887e-07
3.2489578e-07
5.8836326e-07
2.7732409e-07
2.815855e-07
2.9022372e-07
2.9946629e-07
3.1324042e-07
3.2429708e-07
3.73603e-07
5.3253054e-07
6.2336919e-07
4.7871319e-07
3.1274941e-07
2.5167725e-07
3.0266853e-07
6.0084244e-07
2.7559031e-07
2.7897122e-07
2.8664299e-07
2.9538275e-07
3.0750794e-07
3.1525564e-07
3.4538756e-07
4.8395483e-07
6.1879111e-07
5.4188702e-07
3.5192236e-07
2.2952851e-07
2.831527e-07
6.0221077e-07
2.8384907e-07
2.7870263e-07
2.8153611e-07
2.8811446e-07
2.9788493e-07
3.0443344e-07
3.1773209e-07
4.1411777e-07
5.6673916e-07
6.0637848e-07
4.2379791e-07
2.3039206e-07
2.7063403e-07
5.7799522e-07
3.9592182e-07
3.9592172e-07
3.9592172e-07
3.9592172e-07
3.9592156e-07
3.9592156e-07
3.9592157e-07
3.9592157e-07
3.9592133e-07
3.9592133e-07
3.9592134e-07
3.9592134e-07
3.9592136e-07
3.9592136e-07
3.9592096e-07
3.9592096e-07
3.9592097e-07
3.9592098e-07
3.95921e-07
3.95921e-07
3.9592103e-07
3.9592104e-07
3.9592033e-07
3.9592033e-07
3.9592033e-07
3.9592034e-07
3.9592037e-07
3.9592039e-07
3.9592041e-07
3.9592043e-07
3.9592048e-07
3.959205e-07
3.9591912e-07
3.959191e-07
3.959191e-07
3.959191e-07
3.9591911e-07
3.9591917e-07
3.9591921e-07
3.9591925e-07
3.959193e-07
3.9591935e-07
3.9591942e-07
3.9591949e-07
3.9591631e-07
3.9591617e-07
3.9591607e-07
3.95916e-07
3.9591597e-07
3.9591599e-07
3.9591605e-07
3.959162e-07
3.9591635e-07
3.9591652e-07
3.9591669e-07
3.9591687e-07
3.959171e-07
3.9590559e-07
3.9590418e-07
3.9590125e-07
3.9589733e-07
3.9589351e-07
3.9589103e-07
3.9589069e-07
3.9589248e-07
3.9589569e-07
3.9589953e-07
3.9590299e-07
3.959057e-07
3.9590803e-07
3.9590779e-07
3.9592207e-07
3.9592207e-07
3.9592207e-07
3.9592207e-07
3.9592205e-07
3.9592205e-07
3.9592204e-07
3.9592204e-07
3.9592204e-07
3.9592204e-07
3.9592201e-07
3.9592201e-07
3.9592201e-07
3.9592201e-07
3.95922e-07
3.95922e-07
3.95922e-07
3.9592199e-07
3.9592196e-07
3.9592197e-07
3.9592196e-07
3.9592196e-07
3.9592196e-07
3.9592196e-07
3.9592195e-07
3.9592195e-07
3.9592194e-07
3.9592194e-07
3.959219e-07
3.959219e-07
3.959219e-07
3.959219e-07
3.959219e-07
3.959219e-07
3.959219e-07
3.9592189e-07
3.9592189e-07
3.9592188e-07
3.9592187e-07
3.9592187e-07
3.9592182e-07
3.9592182e-07
3.9592182e-07
3.9592182e-07
3.9592182e-07
3.9592182e-07
3.9592182e-07
3.9592182e-07
3.9592181e-07
3.959218e-07
3.9592179e-07
3.9592178e-07
3.9592178e-07
3.9592177e-07
3.9592171e-07
3.9592172e-07
3.9592171e-07
3.9592171e-07
3.9592171e-07
3.9592171e-07
3.9592171e-07
3.959217e-07
3.9592169e-07
3.9592167e-07
3.9592166e-07
3.9592165e-07
3.9592164e-07
3.9592163e-07
3.9592156e-07
3.9592156e-07
3.9592156e-07
3.9592155e-07
3.9592155e-07
3.9592155e-07
3.9592154e-07
3.9592153e-07
3.959215e-07
3.9592148e-07
3.9592146e-07
3.9592144e-07
3.9592142e-07
3.959214e-07
3.9592132e-07
3.9592133e-07
3.9592132e-07
3.9592132e-07
3.9592132e-07
3.959213e-07
3.9592128e-07
3.9592125e-07
3.959212e-07
3.9592114e-07
3.9592105e-07
3.9592093e-07
3.959208e-07
3.9592071e-07
3.9592096e-07
3.9592095e-07
3.9592096e-07
3.9592094e-07
3.9592094e-07
3.959209e-07
3.9592081e-07
3.9592064e-07
3.9592036e-07
3.9591984e-07
3.9591892e-07
3.9591743e-07
3.9591553e-07
3.9591395e-07
3.9592033e-07
3.9592032e-07
3.9592031e-07
3.9592029e-07
3.9592021e-07
3.9592003e-07
3.959196e-07
3.9591863e-07
3.9591594e-07
3.9590836e-07
3.9589139e-07
3.9586143e-07
3.9581883e-07
3.9578115e-07
3.9591912e-07
3.9591901e-07
3.9591868e-07
3.9591784e-07
3.9591573e-07
3.9591095e-07
3.9590118e-07
3.958844e-07
3.9586085e-07
3.9581936e-07
3.9568815e-07
3.9540441e-07
3.9509574e-07
3.948027e-07
3.9591653e-07
3.959162e-07
3.9591395e-07
3.9590478e-07
3.9587676e-07
3.9581053e-07
3.9568254e-07
3.9545825e-07
3.9513593e-07
3.9495023e-07
3.9543772e-07
3.9611357e-07
3.9537512e-07
3.9395104e-07
3.9590525e-07
3.9590519e-07
3.9591669e-07
3.9593805e-07
3.9593376e-07
3.9577904e-07
3.9530733e-07
3.9451085e-07
3.9437835e-07
3.9838775e-07
4.090996e-07
4.1255607e-07
3.8427784e-07
3.7464996e-07
4.0236451e-07
3.9478548e-07
3.9686237e-07
3.8696239e-07
3.8197212e-07
3.8422329e-07
3.9319529e-07
4.0366388e-07
4.1072791e-07
4.1484272e-07
4.0281637e-07
3.9416608e-07
3.904062e-07
3.9901933e-07
3.8874188e-07
3.7967794e-07
3.6964276e-07
3.6941875e-07
3.7858237e-07
3.9283761e-07
4.074279e-07
4.1619859e-07
4.1997008e-07
4.0232981e-07
4.2571117e-07
3.9528442e-07
3.9097486e-07
3.8827508e-07
3.7692224e-07
3.6563307e-07
3.5894842e-07
3.6328056e-07
3.766088e-07
3.9480947e-07
4.1270933e-07
4.2197854e-07
4.2356426e-07
4.0093689e-07
4.2042767e-07
3.9245794e-07
3.8689966e-07
3.7870247e-07
3.6625723e-07
3.5544584e-07
3.5252546e-07
3.606938e-07
3.7664385e-07
3.9849338e-07
4.1925651e-07
4.2759945e-07
4.248373e-07
3.9848079e-07
4.1856898e-07
3.8910085e-07
3.8216631e-07
3.7085728e-07
3.5736831e-07
3.4795912e-07
3.4868163e-07
3.5988874e-07
3.7783698e-07
4.0359674e-07
4.2716972e-07
4.3268851e-07
4.2221898e-07
3.9436367e-07
4.1981088e-07
3.8585426e-07
3.7667894e-07
3.6308442e-07
3.4922599e-07
3.4216786e-07
3.4642234e-07
3.6004196e-07
3.7989553e-07
4.0989052e-07
4.3645524e-07
4.3691826e-07
4.1561077e-07
3.8886002e-07
4.2256344e-07
3.8174489e-07
3.7015796e-07
3.548002e-07
3.4168758e-07
3.3772122e-07
3.4520424e-07
3.6082459e-07
3.8247725e-07
4.1742836e-07
4.4686687e-07
4.3928171e-07
4.0533645e-07
3.833588e-07
4.291918e-07
3.76496e-07
3.626616e-07
3.4630286e-07
3.3498165e-07
3.34441e-07
3.4471585e-07
3.6211909e-07
3.8570064e-07
4.2608285e-07
4.5810366e-07
4.3907751e-07
3.9135849e-07
3.7831584e-07
4.371608e-07
3.6991623e-07
3.5431662e-07
3.3824746e-07
3.2978629e-07
3.3267323e-07
3.4509215e-07
3.63836e-07
3.9009867e-07
4.358931e-07
4.6887899e-07
4.3552253e-07
3.7552944e-07
3.7370276e-07
4.4787947e-07
3.6309987e-07
3.461731e-07
3.304612e-07
3.2456771e-07
3.3038443e-07
3.4437613e-07
3.6550401e-07
3.9444757e-07
4.4572146e-07
4.7937191e-07
4.3017827e-07
3.5934429e-07
3.6999011e-07
4.5838179e-07
3.9591243e-07
3.9591328e-07
3.9591405e-07
3.9591461e-07
2.791348e-07
2.7779912e-07
2.8726212e-07
2.9393086e-07
3.0198478e-07
3.0978873e-07
3.3689662e-07
3.9380306e-07
5.4455033e-07
6.5479998e-07
4.3432913e-07
2.2330111e-07
2.7796211e-07
5.6616654e-07
2.7660689e-07
2.7718494e-07
2.8774041e-07
2.942857e-07
3.0301634e-07
3.13154e-07
3.4464164e-07
3.9600397e-07
5.4861165e-07
6.6689713e-07
4.3270805e-07
2.1219592e-07
2.7139751e-07
5.7936687e-07
2.8594704e-07
2.8025932e-07
2.9733107e-07
2.9162314e-07
3.1386314e-07
3.0822729e-07
3.3502418e-07
3.560913e-07
3.9592205e-07
3.9592201e-07
3.9592205e-07
3.9592201e-07
3.9592197e-07
3.9592205e-07
3.9592201e-07
3.9592197e-07
3.9592191e-07
3.9592205e-07
3.9592202e-07
3.9592197e-07
3.9592191e-07
3.9592183e-07
3.9592172e-07
3.9592205e-07
3.9592202e-07
3.9592197e-07
3.9592191e-07
3.9592183e-07
3.9592172e-07
3.9592157e-07
3.9592205e-07
3.9592201e-07
3.9592197e-07
3.9592191e-07
3.9592183e-07
3.9592173e-07
3.9592157e-07
3.9592133e-07
3.9592205e-07
3.9592202e-07
3.9592197e-07
3.9592191e-07
3.9592183e-07
3.9592172e-07
3.9592157e-07
3.9592132e-07
3.9592063e-07
3.9592206e-07
3.9592202e-07
3.9592198e-07
3.9592192e-07
3.9592184e-07
3.9592173e-07
3.9592158e-07
3.9592133e-07
3.9592064e-07
3.9591242e-07
3.9592206e-07
3.9592203e-07
3.9592198e-07
3.9592192e-07
3.9592185e-07
3.9592174e-07
3.9592159e-07
3.9592135e-07
3.9592067e-07
3.959131e-07
3.9575283e-07
3.9592207e-07
3.9592203e-07
3.9592199e-07
3.9592193e-07
3.9592186e-07
3.9592176e-07
3.9592161e-07
3.9592138e-07
3.9592072e-07
3.9591304e-07
3.9574831e-07
3.9447955e-07
3.9592226e-07
3.9592226e-07
3.9592226e-07
3.9592226e-07
3.9592226e-07
3.9592226e-07
3.9592226e-07
3.9592226e-07
3.9592226e-07
3.9592226e-07
3.9592226e-07
3.9592225e-07
3.9592225e-07
3.9592226e-07
3.9592226e-07
3.9592226e-07
3.9592226e-07
3.9592226e-07
3.9592226e-07
3.9592226e-07
3.9592225e-07
3.9592225e-07
3.9592225e-07
3.9592223e-07
3.9592226e-07
3.9592226e-07
3.9592226e-07
3.9592225e-07
3.9592225e-07
3.9592225e-07
3.9592223e-07
3.9592218e-07
3.9592226e-07
3.9592225e-07
3.9592225e-07
3.9592225e-07
3.9592223e-07
3.9592218e-07
3.9592225e-07
3.9592225e-07
3.9592223e-07
3.9592218e-07
3.9592225e-07
3.9592223e-07
3.9592218e-07
3.9592223e-07
3.9592218e-07
3.9592223e-07
3.9592218e-07
3.9592219e-07
3.9592219e-07
3.9592219e-07
3.9592219e-07
4.6394325e-07
4.0111861e-07
4.0136623e-07
3.9602627e-07
3.9592539e-07
3.959193e-07
3.9592011e-07
3.9592063e-07
3.9592099e-07
3.9592123e-07
3.9592141e-07
3.9592155e-07
3.9592166e-07
3.9592175e-07
4.5946111e-07
3.9990706e-07
4.0011309e-07
3.9600022e-07
3.9592331e-07
3.9591963e-07
3.9592034e-07
3.9592081e-07
3.9592113e-07
3.9592135e-07
3.9592151e-07
3.9592163e-07
3.9592173e-07
3.959218e-07
4.5570567e-07
3.9913172e-07
3.9923918e-07
3.9598171e-07
3.959222e-07
3.9591987e-07
3.9592052e-07
3.9592094e-07
3.9592123e-07
3.9592143e-07
3.9592158e-07
3.959217e-07
3.9592178e-07
3.9592185e-07
4.5250048e-07
3.9854345e-07
3.9860052e-07
3.9596838e-07
3.9592158e-07
3.9592007e-07
3.9592066e-07
3.9592105e-07
3.9592132e-07
3.959215e-07
3.9592164e-07
3.9592174e-07
3.9592182e-07
3.9592189e-07
4.4985434e-07
3.9810937e-07
3.9813491e-07
3.9595847e-07
3.9592122e-07
3.9592023e-07
3.9592078e-07
3.9592114e-07
3.9592139e-07
3.9592156e-07
3.9592169e-07
3.9592178e-07
3.9592185e-07
3.9592191e-07
4.4773263e-07
3.9778193e-07
3.9779355e-07
3.9595101e-07
3.95921e-07
3.9592037e-07
3.9592088e-07
3.9592122e-07
3.9592145e-07
3.9592161e-07
3.9592173e-07
3.9592181e-07
3.9592188e-07
3.9592194e-07
4.4602474e-07
3.9754352e-07
3.9754924e-07
3.9594554e-07
3.959209e-07
3.959205e-07
3.9592097e-07
3.9592129e-07
3.959215e-07
3.9592165e-07
3.9592176e-07
3.9592184e-07
3.9592191e-07
3.9592196e-07
3.9592226e-07
3.9592226e-07
3.9592226e-07
3.9592226e-07
3.9592226e-07
3.9592226e-07
3.9592226e-07
3.9592226e-07
3.9592226e-07
3.9592226e-07
3.9592226e-07
3.9592226e-07
3.9592226e-07
3.9592226e-07
3.9592226e-07
3.9592226e-07
3.9592226e-07
3.9592226e-07
3.9592226e-07
3.9592226e-07
3.9592226e-07
3.9592226e-07
3.9592226e-07
3.9592226e-07
3.9592226e-07
3.9592226e-07
3.9592226e-07
3.9592226e-07
3.9592226e-07
3.9592226e-07
3.9592226e-07
3.9592226e-07
3.9592226e-07
3.9592226e-07
3.9592226e-07
3.9592226e-07
3.9592226e-07
3.9592226e-07
3.9592226e-07
3.9592226e-07
3.9592226e-07
3.9592226e-07
3.9592226e-07
3.9592226e-07
3.9592225e-07
3.9592226e-07
3.9592226e-07
3.9592226e-07
3.9592226e-07
3.9592226e-07
3.9592226e-07
3.9592226e-07
3.9592226e-07
3.9592226e-07
3.9592225e-07
3.9592225e-07
3.9592225e-07
3.9592223e-07
3.9592226e-07
3.9592226e-07
3.9592226e-07
3.9592226e-07
3.9592226e-07
3.9592226e-07
3.9592226e-07
3.9592226e-07
3.9592226e-07
3.9592225e-07
3.9592225e-07
3.9592224e-07
3.9592223e-07
3.9592216e-07
3.9592226e-07
3.9592226e-07
3.9592226e-07
3.9592226e-07
3.9592226e-07
3.9592226e-07
3.9592226e-07
3.9592226e-07
3.9592226e-07
3.9592225e-07
3.9592225e-07
3.9592224e-07
3.9592223e-07
3.9592216e-07
3.9592226e-07
3.9592226e-07
3.9592226e-07
3.9592226e-07
3.9592226e-07
3.9592226e-07
3.9592226e-07
3.9592226e-07
3.9592226e-07
3.9592225e-07
3.9592225e-07
3.9592224e-07
3.9592223e-07
3.9592215e-07
3.9592226e-07
3.9592226e-07
3.9592226e-07
3.9592226e-07
3.9592226e-07
3.9592226e-07
3.9592226e-07
3.9592225e-07
3.9592225e-07
3.9592224e-07
3.9592223e-07
3.9592214e-07
3.9592226e-07
3.9592226e-07
3.9592226e-07
3.9592226e-07
3.9592225e-07
3.9592225e-07
3.9592224e-07
3.9592222e-07
3.9592214e-07
3.9592226e-07
3.9592225e-07
3.9592225e-07
3.9592224e-07
3.9592222e-07
3.9592213e-07
3.9592224e-07
3.9592222e-07
3.9592212e-07
)
;

boundaryField
{
    Side
    {
        type            empty;
    }
    Inlet
    {
        type            inletOutlet;
        inletValue      uniform 3.9592226e-07;
        value           nonuniform List<scalar> 
15
(
3.9592226e-07
3.9592226e-07
3.9592226e-07
3.9592226e-07
3.9592226e-07
3.9592226e-07
3.9592226e-07
3.9592226e-07
3.9592226e-07
3.9592226e-07
3.9592226e-07
3.9592226e-07
3.9592226e-07
3.9592226e-07
3.9592226e-07
)
;
    }
    Airfoil
    {
        type            nutUSpaldingWallFunction;
        value           nonuniform List<scalar> 0();
    }
    Outlet
    {
        type            zeroGradient;
    }
    Flap
    {
        type            nutUSpaldingWallFunction;
        value           nonuniform List<scalar> 
32
(
1.4859312e-06
1.4201005e-06
1.364824e-06
1.3201747e-06
1.2851457e-06
1.2603488e-06
1.2461162e-06
1.2426118e-06
1.2490291e-06
1.2653562e-06
1.290676e-06
1.3244241e-06
1.3641937e-06
1.4086196e-06
1.8290519e-06
1.7868567e-06
1.7454247e-06
1.7062454e-06
1.6686462e-06
1.6324073e-06
1.5985992e-06
1.5675947e-06
1.5383147e-06
1.4071103e-06
1.3626245e-06
8.9518989e-06
9.5559051e-06
1.009819e-05
1.0588549e-05
1.1034249e-05
1.144261e-05
1.1811891e-05
)
;
    }
    procBoundary3to2
    {
        type            processor;
        value           nonuniform List<scalar> 
113
(
3.9592226e-07
3.9592226e-07
3.5758431e-07
3.5758431e-07
3.5714205e-07
3.554839e-07
3.5482044e-07
3.527709e-07
3.5213952e-07
3.4951266e-07
3.4926909e-07
3.4595242e-07
3.4545875e-07
3.4251515e-07
3.4212987e-07
3.3946293e-07
3.6787205e-07
3.6787205e-07
4.0365188e-07
3.9531507e-07
3.940819e-07
4.0365188e-07
3.5203023e-07
3.2880995e-07
3.8572337e-07
3.8419293e-07
4.1232376e-07
4.1381867e-07
4.044956e-07
3.9499782e-07
3.9619258e-07
4.0153238e-07
4.0607403e-07
4.0940286e-07
4.0325179e-07
4.2943245e-07
4.2943245e-07
3.9592205e-07
3.9592205e-07
3.9592201e-07
3.9592197e-07
3.9592197e-07
3.9592191e-07
3.9592191e-07
3.9592183e-07
3.9592183e-07
3.9592172e-07
3.9592156e-07
3.9592156e-07
3.9592132e-07
3.9592132e-07
3.9592063e-07
3.9592063e-07
3.9591216e-07
3.9591216e-07
3.9573469e-07
3.9573469e-07
3.943555e-07
3.943555e-07
3.940819e-07
3.9592226e-07
3.9592226e-07
3.9592226e-07
3.9592226e-07
3.9592226e-07
3.9592226e-07
3.9592226e-07
3.9592226e-07
3.9592225e-07
3.9592225e-07
3.9592225e-07
3.9592225e-07
3.9592223e-07
3.9592218e-07
3.9592218e-07
4.4428523e-07
3.9742204e-07
3.9738561e-07
3.9594292e-07
3.9592088e-07
3.959206e-07
3.9592104e-07
3.9592134e-07
3.9592154e-07
3.9592168e-07
3.9592179e-07
3.9592187e-07
3.9592193e-07
3.9592197e-07
3.9592226e-07
3.9592226e-07
3.9592226e-07
3.9592226e-07
3.9592226e-07
3.9592226e-07
3.9592226e-07
3.9592226e-07
3.9592226e-07
3.9592226e-07
3.9592226e-07
3.9592226e-07
3.9592226e-07
3.9592226e-07
3.9592226e-07
3.9592226e-07
3.9592226e-07
3.9592225e-07
3.9592225e-07
3.9592225e-07
3.9592225e-07
3.9592223e-07
3.9592216e-07
3.9592216e-07
)
;
    }
    procBoundary3to4
    {
        type            processor;
        value           nonuniform List<scalar> 
142
(
3.9591516e-07
3.9591244e-07
3.9591563e-07
3.9591149e-07
3.9591052e-07
3.959095e-07
3.9590848e-07
3.9590734e-07
3.9590597e-07
3.9590415e-07
3.9590087e-07
3.9589122e-07
3.958526e-07
3.9568161e-07
3.9505969e-07
3.9293306e-07
3.7376766e-07
3.9592191e-07
3.9592183e-07
3.9592183e-07
3.9592184e-07
3.9592173e-07
3.9592173e-07
3.9592159e-07
3.9592159e-07
3.9592159e-07
3.9592138e-07
3.9592138e-07
3.9592139e-07
3.9592107e-07
3.9592107e-07
3.9592108e-07
3.9592054e-07
3.9592054e-07
3.9592058e-07
3.9591961e-07
3.9591961e-07
3.9591696e-07
3.9591696e-07
3.9592208e-07
3.9592208e-07
3.9592208e-07
3.9592219e-07
3.9592219e-07
3.9592219e-07
3.9592219e-07
3.9592205e-07
3.9592205e-07
3.9592205e-07
3.9592201e-07
3.9592201e-07
3.9592201e-07
3.9592196e-07
3.9592197e-07
3.9592197e-07
3.959219e-07
3.959219e-07
3.959219e-07
3.959179e-07
3.9591821e-07
3.9591846e-07
3.9591866e-07
3.9591516e-07
2.7530415e-07
2.7833474e-07
2.8854432e-07
2.9530471e-07
3.0468555e-07
3.1655125e-07
3.5025362e-07
4.12752e-07
5.7904755e-07
6.472405e-07
4.0528703e-07
2.0489845e-07
2.6412447e-07
6.0008044e-07
2.7563826e-07
2.8225796e-07
2.9631618e-07
3.3015633e-07
3.3015633e-07
3.511607e-07
3.7376766e-07
3.9592219e-07
3.9592226e-07
3.9592226e-07
3.9592226e-07
3.9592226e-07
3.9592226e-07
3.9592226e-07
3.9592226e-07
3.9592226e-07
3.9592226e-07
3.9592226e-07
3.9592226e-07
3.9592226e-07
3.9592225e-07
3.9592225e-07
3.9592225e-07
3.9592225e-07
3.9592225e-07
3.9592225e-07
3.9592225e-07
3.9592223e-07
3.9592223e-07
3.9592223e-07
3.9592223e-07
3.9592224e-07
3.9592219e-07
4.6852571e-07
4.0292169e-07
4.0314497e-07
3.9606572e-07
3.9592975e-07
3.9591889e-07
3.9591982e-07
3.9592042e-07
3.9592081e-07
3.9592109e-07
3.9592129e-07
3.9592145e-07
3.9592157e-07
3.9592167e-07
3.9592226e-07
3.9592226e-07
3.9592226e-07
3.9592226e-07
3.9592226e-07
3.9592226e-07
3.9592226e-07
3.9592226e-07
3.9592226e-07
3.9592226e-07
3.9592226e-07
3.9592226e-07
3.9592225e-07
3.9592225e-07
3.9592225e-07
3.9592224e-07
3.9592222e-07
3.9592211e-07
)
;
    }
}


// ************************************************************************* //
