/*--------------------------------*- C++ -*----------------------------------*\
| =========                 |                                                 |
| \\      /  F ield         | OpenFOAM: The Open Source CFD Toolbox           |
|  \\    /   O peration     | Version:  2206                                  |
|   \\  /    A nd           | Website:  www.openfoam.com                      |
|    \\/     M anipulation  |                                                 |
\*---------------------------------------------------------------------------*/
FoamFile
{
    version     2.0;
    format      ascii;
    arch        "LSB;label=32;scalar=64";
    class       volScalarField;
    location    "0.02";
    object      p;
}
// * * * * * * * * * * * * * * * * * * * * * * * * * * * * * * * * * * * * * //

dimensions      [1 -1 -2 0 0 0 0];

internalField   nonuniform List<scalar> 
1396
(
0.99259157
0.99577902
0.9958576
0.99635639
0.99768877
0.99850342
0.99920075
0.99964385
0.9998647
0.99995927
0.99998783
0.99233861
0.99548589
0.99570385
0.99642881
0.99766017
0.99852793
0.99922212
0.99965206
0.99986559
0.99995653
0.9999831
0.99226549
0.99530116
0.99561028
0.99653837
0.99759814
0.99851774
0.99922721
0.99965092
0.99986096
0.99994718
0.999973
0.9922619
0.99509908
0.99557979
0.99660248
0.99756995
0.99852246
0.99923605
0.99964748
0.99985099
0.99992881
0.9999535
0.99235895
0.99491377
0.99560725
0.99663427
0.99754532
0.99853242
0.99923991
0.99963665
0.99983011
0.99989526
0.99991619
0.99250573
0.99475575
0.99565704
0.99664694
0.99753977
0.99854656
0.99923996
0.9996165
0.99979264
0.99983711
0.99984798
0.99269007
0.99463961
0.9957139
0.99665248
0.9975457
0.99856455
0.99923292
0.99958052
0.99972896
0.99974155
0.99972926
0.99292105
0.99457157
0.99576549
0.99665783
0.99756348
0.9985811
0.99921288
0.99951917
0.999624
0.99958903
0.99953095
0.99320795
0.99456422
0.99580051
0.99667179
0.99758616
0.99858712
0.9991686
0.99941821
0.9994579
0.99934673
0.9992068
0.99352844
0.99461343
0.99582075
0.99669475
0.9976101
0.99857567
0.99908852
0.99926155
0.99920262
0.9989703
0.99869001
0.99385702
0.9946955
0.99584108
0.99672116
0.99763607
0.99854595
0.99896618
0.99903329
0.99883574
0.99840897
0.99789925
0.99423405
0.99479897
0.99587947
0.99674325
0.99765772
0.99848969
0.99878672
0.99870789
0.99830388
0.99758206
0.99671619
0.99480336
0.99497242
0.99593774
0.99673984
0.99765193
0.99835615
0.99848541
0.99818007
0.99746152
0.99631775
0.99494129
0.99529978
0.99600409
0.99669743
0.99757873
0.99808771
0.99798097
0.99733989
0.99617982
0.99448645
0.99244499
0.99998927
0.99997914
0.9999585
0.99991779
0.99984131
0.99970401
0.99946738
0.99906998
0.99841995
0.99740977
0.99592273
0.99379151
0.99080527
0.98691304
0.99997867
0.99995582
0.99990844
0.99981385
0.99963398
0.99930781
0.99874594
0.99782565
0.99639739
0.99430951
0.99141076
0.98751144
0.98241174
0.97605371
0.99995969
0.99991396
0.99981812
0.99962649
0.99926558
0.99862455
0.99755439
0.99587383
0.99338789
0.98991752
0.98530401
0.97937364
0.97191952
0.96285743
0.99993377
0.99985513
0.99968985
0.99936135
0.9987525
0.99769754
0.99599101
0.99340615
0.98972105
0.98474816
0.97834133
0.97035069
0.96057864
0.94903559
0.99990835
0.99979443
0.9995541
0.99907784
0.9982049
0.99671937
0.99437059
0.9909014
0.98607552
0.97970343
0.97165169
0.96179522
0.95002851
0.93641587
0.99989217
0.9997512
0.99945085
0.99885308
0.99776002
0.99591477
0.99303167
0.98883057
0.9830629
0.97553375
0.96610906
0.95469832
0.94135596
0.92603822
0.99989021
0.99973817
0.99940838
0.99874333
0.99751769
0.99544285
0.99220397
0.98749845
0.98106159
0.97268583
0.96222416
0.94963109
0.93508369
0.91839596
0.99990181
0.99975671
0.99943343
0.99876653
0.99751475
0.99536658
0.99198113
0.98703096
0.98022932
0.97134846
0.96021957
0.94682285
0.93140563
0.91368418
0.99992217
0.99979857
0.99951321
0.99890523
0.99773075
0.99566561
0.99234647
0.98741876
0.98056814
0.97154056
0.96013943
0.94631884
0.9303751
0.91198323
0.99994533
0.99985151
0.99962521
0.99912264
0.99811311
0.99627445
0.99322875
0.98859488
0.9820272
0.9732404
0.96200834
0.9482028
0.93212016
0.91348211
0.99996607
0.99990287
0.99974242
0.99936777
0.99857728
0.99706926
0.99446496
0.9903612
0.98437929
0.97619747
0.96556112
0.95225126
0.93640204
0.9179651
0.99998147
0.99994391
0.99984295
0.99959346
0.9990358
0.99790997
0.99585933
0.99247289
0.9873433
0.98011167
0.97049125
0.95821081
0.94306898
0.92532396
0.99999107
0.99997155
0.99991525
0.99976715
0.99941345
0.99864937
0.99716251
0.99455284
0.99039009
0.9842776
0.97588764
0.96490604
0.95091117
0.93409364
0.99999578
0.99998593
0.99995619
0.99987377
0.99966591
0.99919075
0.99821163
0.99639729
0.99336661
0.98876211
0.98229217
0.97373521
0.96295369
0.94947117
0.9999993
0.99999759
0.99999191
0.99997459
0.99992583
0.99979992
0.99950275
0.9988622
0.99759903
0.99531411
0.99153489
0.98584502
0.97808564
0.96783616
0.99999995
0.99999978
0.99999906
0.99999636
0.99998712
0.99995813
0.99987527
0.99966242
0.99916409
0.99809449
0.99603028
0.99249164
0.98738929
0.97962958
1
0.99999999
0.99999996
0.99999982
0.99999924
0.99999687
0.99998687
0.99994509
0.99980086
0.99939991
0.9984816
0.99660152
0.99358256
0.98823488
1
1
1
0.99999998
0.99999992
0.99999963
0.99999837
0.99999289
0.99997005
0.99987024
0.99954183
0.99867746
0.99706068
0.99358998
1
1
1
1
0.99999999
0.99999996
0.99999978
0.99999893
0.99999496
0.99997655
0.99989753
0.99957921
0.99882091
0.99688327
1
1
1
1
1
0.99999999
0.99999997
0.99999984
0.99999914
0.99999561
0.99997965
0.99989485
0.99960765
0.99869364
0.9795442
0.96437891
0.94432189
0.91976581
0.89166371
0.86264283
0.8378022
0.81909195
0.81594826
0.81319267
0.81522983
0.80905086
0.80988866
0.80470291
0.96490336
0.94527286
0.92100112
0.89274634
0.86208636
0.83306434
0.81105937
0.7952543
0.79730496
0.79515141
0.79459933
0.78496897
0.78794768
0.78724318
0.94831505
0.92516738
0.89735118
0.86588555
0.83453132
0.80637141
0.78778182
0.77550384
0.78023767
0.77855605
0.77509293
0.7636297
0.76880341
0.77192284
0.9316865
0.9054789
0.8744218
0.84130669
0.810109
0.78305473
0.76760759
0.75904934
0.76386185
0.76207086
0.7558781
0.74585261
0.75120717
0.75652617
0.91674063
0.88779871
0.85435095
0.82064705
0.78956854
0.76353901
0.75052834
0.74549113
0.74899337
0.74681932
0.73981408
0.73160517
0.73658406
0.74267856
0.90452462
0.87285889
0.83834061
0.80393093
0.77295153
0.747619
0.73620697
0.73399089
0.73618212
0.73225771
0.72579224
0.71946625
0.72379934
0.72951162
0.89515805
0.86167521
0.82626604
0.7910639
0.75973333
0.73451094
0.72394836
0.72320426
0.72479898
0.71901816
0.71340626
0.70819786
0.7122195
0.71724298
0.88906262
0.85419244
0.81786336
0.78166817
0.74936078
0.72351263
0.71282923
0.712418
0.71384469
0.70717675
0.70196172
0.69705912
0.70096247
0.70543189
0.88634781
0.85049985
0.81297824
0.77546735
0.74150036
0.71399263
0.70205128
0.70086706
0.7028949
0.6962968
0.69088443
0.68564496
0.689634
0.69399977
0.88745102
0.85079039
0.81201684
0.77287808
0.73670676
0.70637094
0.69186152
0.68861793
0.69219571
0.68654517
0.68037549
0.67449038
0.67857578
0.68341939
0.89220032
0.85495644
0.81494581
0.77395536
0.73519305
0.70109218
0.68263551
0.67618453
0.68033754
0.67708222
0.67025151
0.66310527
0.66702909
0.67249432
0.90042091
0.86335811
0.82211735
0.77921093
0.73769087
0.69930395
0.67541647
0.66415837
0.66816159
0.66720854
0.66201173
0.6515834
0.65627116
0.66204458
0.91052544
0.87453068
0.83250043
0.78798982
0.74382473
0.70114473
0.67082164
0.65345987
0.65421257
0.65612937
0.65373185
0.6422145
0.64596666
0.65082269
0.92857642
0.89484488
0.852895
0.80652695
0.75903048
0.71143838
0.67255819
0.64609956
0.63954834
0.64284746
0.64446219
0.6352878
0.63686301
0.63988918
1
1
1
1
1
1
1
1
1
1
1
1
1
1
1
1
1
1
1
1
1
1
1
1
1
1
1
1
1
1
1
1
1
1
1
1
1
1
1
1
1
1
1
1
1
1
0.99999999
0.99999999
0.99999999
0.99999999
0.99999999
0.99999999
0.99999999
0.99999999
1
1
1
0.99999962
0.99999956
0.99999921
0.99999873
0.99999828
0.99999801
0.99999803
0.99999829
0.9999987
0.99999913
0.99999949
0.99999973
0.99999988
0.99999995
1
1
1
1
1
1
1
1
1
1
1
1
1
1
1
1
1
1
1
1
1
1
1
1
1
1
1
1
1
1
1
1
1
1
1
1
1
1
1
1
1
1
1
1
1
1
1
1
1
1
1
1
1
1
1
1
1
1
1
1
1
1
1
1
1
1
1
1
1
1
1
1
1
1
1
1
1
1
1
1
1
1
1
1
1
1
1
1
1
1
1
0.99999999
0.99999997
0.99999994
0.9999999
0.99999987
1
1
1
1
1
1
0.99999999
0.99999997
0.9999999
0.99999976
0.99999947
0.99999893
0.99999813
0.9999972
1
1
1
1
0.99999999
0.99999997
0.99999991
0.99999964
0.99999875
0.99999616
0.99998956
0.99997501
0.99994697
0.99991217
1
0.99999999
0.99999993
0.99999974
0.99999921
0.99999774
0.99999393
0.99998443
0.99996431
0.99992771
0.999846
0.99963843
0.99928282
0.99891173
1
1.0000001
0.99999977
0.9999981
0.9999918
0.99997368
0.99992745
0.99980365
0.99951543
0.9990044
0.99836882
0.99760135
0.99593912
0.99289638
0.99999897
0.99999789
0.99999738
0.99999705
0.99998898
0.99994249
0.99980621
0.99936175
0.99816459
0.99625349
0.99672354
1.0010875
0.99715369
1.0011836
1.0026599
1.0011123
0.99528268
0.98433444
0.97033126
0.95409875
0.93851633
0.92647877
0.92099037
0.91656407
0.91984458
0.99638733
0.99810493
0.99789621
0.99431713
0.98633111
0.97370171
0.95780047
0.94020886
0.92407815
0.91197745
0.90815469
0.90494639
0.90835225
0.90239671
0.99661039
0.99638021
0.99430358
0.98877072
0.97858367
0.96394492
0.94584041
0.92669122
0.91015634
0.89818972
0.89611641
0.8942704
0.8972205
0.88990104
0.99721805
0.99569073
0.99168009
0.98376896
0.97104615
0.95400648
0.93370238
0.91322596
0.89672938
0.88524391
0.88494421
0.88447054
0.8867783
0.87845904
0.99725628
0.99459207
0.98868863
0.978234
0.96295055
0.94346674
0.92124087
0.899827
0.88389757
0.87332766
0.87463445
0.87516668
0.87653891
0.86706948
0.99659878
0.9925659
0.98462032
0.97167726
0.9540275
0.93230742
0.90857556
0.88663847
0.87175095
0.86244949
0.86505131
0.86594706
0.8663191
0.85612404
0.99524918
0.98965786
0.97950673
0.96422612
0.94437249
0.92070552
0.89590337
0.87375842
0.8604089
0.85254204
0.85607924
0.85687821
0.85634972
0.8461776
0.99321982
0.98592868
0.97352769
0.95611797
0.93420998
0.90891573
0.88343394
0.86135222
0.84998733
0.84354708
0.84756352
0.84777118
0.84666024
0.8367551
0.9905465
0.9814002
0.96681022
0.94741597
0.92361365
0.89703495
0.87107622
0.84953581
0.84038162
0.835101
0.83912634
0.83814612
0.83701429
0.8274611
0.98738359
0.97626148
0.95959973
0.93831037
0.91277917
0.88502739
0.85908916
0.83825805
0.83123528
0.82684884
0.83047164
0.82777896
0.82737712
0.81873446
0.99999999
1
1
1
0.91663253
0.88099113
0.84021991
0.79391748
0.74651731
0.70083443
0.66329207
0.63489664
0.63149662
0.63143988
0.63739321
0.62756264
0.63030389
0.63031942
0.90174257
0.86327148
0.82126784
0.7745881
0.72841196
0.68463546
0.6493193
0.62279022
0.62093758
0.62379672
0.62947506
0.61783178
0.6206218
0.62220622
0.93995295
0.92919725
0.95772556
0.9509789
0.97192571
0.96790523
0.98301215
0.99077889
1
1
1
1
1
1
1
1
1
1
1
1
1
1
1
1
1
1
1
1
1
1
1
1
1
1
1
1
1
1
1
1
1
1
1
1
1
1
0.99999987
1
1
1
1
1
1
1
1
0.99999987
0.99999622
1
1
1
1
1
1
1
1
0.99999988
0.99999654
0.99988381
1
1
1
1
1
1
1
1
0.99999989
0.99999653
0.99988013
0.99862444
1
1
1
1
1
1
1
1
1
1
1
1
1
1
1
1
1
1
1
1
1
1
1
1
1
1
1
1
1
1
1
1
1
1
1
1
1
1
1
1
1
1
1
1
1
1
1
1
1
1
1
1
1
1.2734518
1.0146856
1.005334
1.0001244
1.000004
1
1
1
1
1
1
1
1
1
1.2330701
1.0118115
1.0040228
1.0000865
1.0000026
1
1
1
1
1
1
1
1
1
1.2012153
1.0096868
1.0031252
1.0000625
1.0000018
1
1
1
1
1
1
1
1
1
1.1756239
1.0080782
1.0024828
1.0000466
1.0000013
1
1
1
1
1
1
1
1
1
1.155525
1.0068475
1.0020211
1.0000358
1.000001
1
1
1
1
1
1
1
1
1
1.140009
1.0059016
1.0016858
1.0000283
1.0000008
1
1
1
1
1
1
1
1
1
1.1289333
1.0051953
1.0014473
1.000023
1.0000006
1
1
1
1
1
1
1
1
1
1
1
1
1
1
1
1
1
1
1
1
1
1
1
1
1
1
1
1
1
1
1
1
1
1
1
1
1
1
1
1
1
1
1
1
1
1
1
1
1
1
1
1
1
1
1
1
1
1
1
1
1
1
1
1
1
1
1
1
1
1
1
1
1
1
1
1
1
1
1
1
1
1
1
1
1
1
1
1
1
1
1
1
1
1
1
1
1
1
1
1
1
1
1
1
1
1
1
1
1
1
1
1
1
1
1
1
1
1
1
1
1
1
1
1
1
1
1
1
1
1
1
1
1
1
1
1
1
1
1
)
;

boundaryField
{
    Side
    {
        type            empty;
    }
    Inlet
    {
        type            inletOutlet;
        inletValue      uniform 1;
        value           nonuniform List<scalar> 
15
(
1
1
1
1
1
1
1
1
1
1
1
1
1
1
1
)
;
    }
    Airfoil
    {
        type            zeroGradient;
    }
    Outlet
    {
        type            zeroGradient;
    }
    Flap
    {
        type            zeroGradient;
    }
    procBoundary3to2
    {
        type            processor;
        value           nonuniform List<scalar> 
113
(
1
1
0.95526853
0.95526853
0.9555044
0.95618556
0.95697359
0.95792337
0.95896368
0.96011448
0.96132982
0.96259109
0.96397273
0.9655929
0.96740867
0.96888376
0.99553864
0.99553864
0.99414209
0.95173863
0.98843682
0.99414209
0.99854107
1.0036233
1.0058501
1.0076945
1.006769
0.99841171
0.98533812
0.96904181
0.95353341
0.94141848
0.93454684
0.92921884
0.93182525
0.91381877
0.91381877
1
1
1
1
1
1
1
1
1
1
1
1
1
1
0.99999987
0.99999987
0.99999609
0.99999609
0.99987102
0.99987102
0.99850535
0.99850535
0.98843682
1
1
1
1
1
1
1
1
1
1
1
1
1
1
1
1.120897
1.0047093
1.0012886
1.0000199
1.0000005
1
1
1
1
1
1
1
1
1
1
1
1
1
1
1
1
1
1
1
1
1
1
1
1
1
1
1
1
1
1
1
1
1
)
;
    }
    procBoundary3to4
    {
        type            processor;
        value           nonuniform List<scalar> 
142
(
1
1
1
1
1
1
1
1
1
0.99999998
0.99999986
0.99999921
0.99999543
0.99997861
0.99989483
0.99954307
0.99556768
1
1
1
1
1
1
1
1
1
1
1
1
1
1
1
1
1
1
1
1
1
1
1
1
1
1
1
1
1
1
1
1
1
1
1
1
1
1
1
1
1
1
1
1
1
1
0.88616722
0.84578203
0.80245074
0.755794
0.71069434
0.6684568
0.6353862
0.61293289
0.61367671
0.61758236
0.6216835
0.60798588
0.61046662
0.61544177
0.91623379
0.93988109
0.9590419
0.98035828
0.98035828
0.98887955
0.99556768
1
1
1
1
1
1
1
1
1
1
1
1
1
1
1
1
1
1
1
1
1
1
1
1
1
1
1.3229352
1.0186323
1.0072726
1.0001872
1.0000067
1.0000001
1
1
1
1
1
1
1
1
1
1
1
1
1
1
1
1
1
1
1
1
1
1
1
1
1
1
)
;
    }
}


// ************************************************************************* //
