/*--------------------------------*- C++ -*----------------------------------*\
| =========                 |                                                 |
| \\      /  F ield         | OpenFOAM: The Open Source CFD Toolbox           |
|  \\    /   O peration     | Version:  2206                                  |
|   \\  /    A nd           | Website:  www.openfoam.com                      |
|    \\/     M anipulation  |                                                 |
\*---------------------------------------------------------------------------*/
FoamFile
{
    version     2.0;
    format      ascii;
    arch        "LSB;label=32;scalar=64";
    class       surfaceScalarField;
    location    "0.02";
    object      phi;
}
// * * * * * * * * * * * * * * * * * * * * * * * * * * * * * * * * * * * * * //

dimensions      [1 0 -1 0 0 0 0];

oriented        oriented;

internalField   nonuniform List<scalar> 
2641
(
0.00017323714
-0.0013602861
0.0013351723
0.00019951471
-0.0010379205
0.0010112169
0.00022663692
-0.00077198562
0.00074165507
0.00025699103
-0.00058495982
0.00055002133
0.00028951741
-0.00048644541
0.00045400536
0.0003224762
-0.00047338411
0.00043809961
0.00035584063
-0.00047241283
0.00043815687
0.00038945949
-0.00047217512
0.00043889756
0.00042303285
-0.00047129946
0.00043844392
0.0004563983
-0.00047040654
0.00043767756
-0.0004699623
0.00048950298
0.00043722672
0.00017402924
-0.0013775612
0.00019975104
-0.0010582028
0.00022668793
-0.00079841739
0.00025721329
-0.00061675402
0.00028978998
-0.00051964859
0.00032268359
-0.00050830626
0.00035596091
-0.00050657745
0.00038951049
-0.00050538486
0.00042305689
-0.00050404057
0.00045641236
-0.00050293291
-0.00050249224
0.00048950422
0.00017453385
-0.0013957686
0.00020006981
-0.0010796418
0.00022682427
-0.00082586742
0.00025729689
-0.00064744938
0.00028992036
-0.00055524521
0.00032282411
-0.00054241344
0.00035605023
-0.00053993318
0.00038955212
-0.00053821898
0.00042307375
-0.00053654529
0.00045641189
-0.00053520527
-0.000534737
0.00048948965
0.00017498732
-0.0014123116
0.00020035106
-0.0011002103
0.00022700745
-0.00085215731
0.0002574328
-0.00067821064
0.00029003524
-0.0005904841
0.00032294396
-0.0005764273
0.00035614274
-0.00057302316
0.00038960422
-0.00057080423
0.00042309504
-0.00056873223
0.00045640455
-0.00056705986
-0.00056648185
0.00048946164
0.0001753018
-0.0014270762
0.0002006591
-0.0011202259
0.00022724408
-0.00087765855
0.00025756866
-0.00070910208
0.00029013224
-0.00062580314
0.00032305089
-0.00061005648
0.00035622945
-0.00060580713
0.00038965721
-0.00060302011
0.00042311324
-0.00060043598
0.00045638475
-0.00059826886
-0.00059744016
0.0004894138
0.00017547488
-0.0014403344
0.00020096484
-0.001139294
0.00022754583
-0.00090255101
0.00025774251
-0.00074004306
0.00029024001
-0.00066087875
0.00032315694
-0.00064330897
0.00035631224
-0.00063814808
0.00038970663
-0.00063468291
0.00042312284
-0.00063142966
0.00045634819
-0.00062852454
-0.00062718855
0.00048933816
0.00017552857
-0.0014524321
0.00020129627
-0.0011575521
0.00022795155
-0.00092707956
0.00025796936
-0.00077099602
0.00029035393
-0.00069568466
0.00032326531
-0.00067602988
0.00035638721
-0.00066986923
0.0003897425
-0.00066554905
0.0004231111
-0.00066138193
0.00045628586
-0.00065734003
-0.00065504568
0.00048922456
0.00017550824
-0.0014637775
0.0002016676
-0.0011754057
0.00022847871
-0.00095141838
0.00025826178
-0.00080190144
0.00029046016
-0.00072983214
0.0003233686
-0.00070820169
0.00035644894
-0.00070082533
0.00038975882
-0.00069534229
0.0004230673
-0.00068986743
0.00045617611
-0.0006839936
-0.00067994629
0.00048904502
0.00017547978
-0.0014747102
0.00020209311
-0.0011931545
0.00022911803
-0.00097577982
0.00025863162
-0.00083248621
0.00029055243
-0.00076297975
0.00032345417
-0.0007399506
0.00035648873
-0.00073094736
0.000389742
-0.00072377597
0.00042297319
-0.00071627898
0.00045599458
-0.00070757627
-0.0007005332
0.00048876368
0.00017547372
-0.0014854999
0.00020258002
-0.0012108891
0.00022980628
-0.0010002551
0.00025904282
-0.00086248458
0.00029065712
-0.00079519221
0.00032351019
-0.00077125651
0.00035649607
-0.00076016955
0.00038968731
-0.00075056986
0.00042281452
-0.00074001444
0.00045570835
-0.00072719334
-0.00071557055
0.00048833859
0.00017549035
-0.0014963308
0.00020312631
-0.0012285657
0.00023051082
-0.0010247677
0.00025946046
-0.00089191075
0.00029077998
-0.00082671904
0.00032353467
-0.00080188352
0.0003564764
-0.00078834141
0.00038956761
-0.00077547959
0.00042255471
-0.00076053871
0.00045531029
-0.00074222003
-0.00072430795
0.00048775627
0.00017552332
-0.0015075653
0.00020370995
-0.0012460585
0.00023122001
-0.0010490574
0.00025987382
-0.00092082981
0.00029090909
-0.00085757075
0.00032353935
-0.00083151008
0.00035642849
-0.00081509295
0.00038943058
-0.00079788876
0.00042226443
-0.00077725958
0.00045481311
-0.00075208838
-0.00072632201
0.00048705345
0.0001755709
0.00020428817
-0.0012634116
0.00023190918
-0.0010728246
0.00026027233
-0.00094917026
0.00029104083
-0.00088732832
0.00032354469
-0.00085971714
0.00035637775
-0.00083965651
0.00038927136
-0.00081695617
0.00042193385
-0.00078943122
0.00045426901
-0.00075627906
-0.00072130102
0.00048629816
0.00020482479
-0.0012805428
0.00023253585
-0.0010961073
0.00026063011
-0.00097691476
0.00029116065
-0.00091546526
0.00032356192
-0.00088603873
0.0003563215
-0.00086141708
0.00038908223
-0.00083241044
0.00042156145
-0.00079715611
0.00045368781
-0.00075513372
0.00048549513
-0.00070986361
-0.0020440151
0.00050919199
0.002025203
-0.0020618005
0.00050915939
-0.0020781246
0.00050910597
-0.0020920184
0.00050901199
-0.0021020858
0.00050885421
-0.0021059645
0.0005086012
-0.0021004664
0.0005082182
-0.0020820565
0.00050766579
-0.002047416
0.00050690528
-0.00199428
0.00050591746
-0.0019215687
0.00050473308
-0.0018289529
0.00050344314
-0.0017175791
0.00050209118
0.00050060482
-0.0015903767
-0.002041653
0.00052883177
0.0020239347
-0.0020569106
0.00052875399
-0.0020685541
0.0005286228
-0.0020741262
0.00052838887
-0.0020704096
0.00052800236
-0.0020534044
0.00052740682
-0.0020189468
0.00052655182
-0.0019634559
0.00052540418
-0.0018845914
0.00052395923
-0.0017815855
0.00052224026
-0.0016550155
0.00052029764
-0.001506918
0.0005182052
-0.0013402775
0.00051597332
0.00051342991
-0.0011568991
-0.0020374815
0.00054844073
0.0020217759
-0.0020481425
0.00054828167
-0.0020516037
0.00054801177
-0.0020435467
0.00054754044
-0.0020191678
0.00054678827
-0.0019736726
0.00054568166
-0.0019031627
0.00054417903
-0.0018052578
0.00054228544
-0.0016793682
0.00054004427
-0.0015264908
0.00053749927
-0.0013492123
0.00053466732
-0.0011516692
0.00053155257
-0.00093855804
0.00052811076
0.0005240677
-0.00071794259
-0.0020313069
0.0005680235
0.00201856
-0.0020353753
0.00056774707
-0.0020276942
0.00056728205
-0.0020022197
0.00056648874
-0.0019532019
0.00056526222
-0.0018759758
0.00056352594
-0.0017679226
0.00056126867
-0.0016285871
0.0005585479
-0.0014591913
0.00055544842
-0.001262166
0.00055200583
-0.001041429
0.0005481667
-0.00080187028
0.00054383211
-0.00055734395
0.00053887695
0.0005329441
-0.00031355878
-0.0020244444
0.00058759839
0.0020149926
-0.0020212256
0.00058718909
-0.002001613
0.00058650268
-0.0019582357
0.00058534937
-0.0018850322
0.0005836043
-0.0017780831
0.000581198
-0.0016363791
0.00057815776
-0.0014612642
0.00057459141
-0.0012553346
0.00057061102
-0.0010220504
0.00056622858
-0.0007657226
0.00056131672
-0.00049468176
0.00055567433
-0.00022935314
0.0005490699
0.00054109413
2.6258096e-05
-0.0020189257
0.00060719292
0.0020122002
-0.0020095242
0.00060666717
-0.0019797899
0.00060577832
-0.0019213917
0.00060429012
-0.0018282297
0.00060205783
-0.0016971892
0.00059901823
-0.001528599
0.00059523246
-0.001325073
0.00059084983
-0.0010901614
0.00058600174
-0.00082813125
0.0005806795
-0.00054329995
0.00057470099
-0.00025265341
0.00056778782
2.568049e-05
0.00055958324
0.0005496162
0.00032535638
-0.0020163369
0.0006268296
0.002011055
-0.002003255
0.00062623268
-0.0019670717
0.00062520194
-0.0018986772
0.00062346001
-0.001791806
0.00062083461
-0.0016438004
0.00061725704
-0.001455828
0.00061280903
-0.0012312811
0.00060767331
-0.00097438951
0.00060200361
-0.00069011135
0.00059578612
-0.00038461363
0.00058880893
-7.984093e-05
0.00058074633
0.00022850663
0.00057111718
0.0005593328
0.00054920302
-0.0020171866
0.00064651607
0.0020117925
-0.0020035363
0.00064590888
-0.0019653958
0.00064482327
-0.0018929088
0.00064294677
-0.0017792632
0.00064006668
-0.0016217059
0.00063608836
-0.0014217227
0.0006310939
-0.0011831369
0.00062529153
-0.00091063607
0.00061886802
-0.00060983302
0.00061182725
-0.00028865008
0.00060395124
2.6517636e-05
0.00059489376
0.0003610899
0.00058408243
0.0005707637
0.00070260537
-0.002020939
0.0006662445
0.0020140364
-0.0020096986
0.00066568809
-0.0019740573
0.00066464392
-0.0019034222
0.00066277296
-0.001789975
0.00065980911
-0.0016302093
0.00065560542
-0.0014253847
0.00065021483
-0.0011794967
0.00064385637
-0.00089747441
0.00063676049
-0.00058548178
0.00062897642
-0.00025122805
0.00062030354
7.8916487e-05
0.00061039747
0.00042920693
0.00059866739
0.00058419664
0.00078933338
-0.0020264802
0.00068599687
0.0020170926
-0.0020200334
0.00068553895
-0.0019908424
0.00068462502
-0.0019277326
0.00068290426
-0.0018215139
0.00068005209
-0.0016672047
0.00067584302
-0.0014651469
0.0006702619
-0.0012192022
0.00066350906
-0.00093434393
0.00065585977
-0.00061686868
0.00064743972
-0.00027281978
0.00063809681
6.8631851e-05
0.00062749809
0.00043116859
0.00061512993
0.00059998777
0.00080660037
-0.0020324661
0.00070575175
0.0020201989
-0.0020321933
0.00070541619
-0.0020123043
0.00070469509
-0.001961465
0.00070324923
-0.0018690321
0.00070070709
-0.0017278925
0.00069674986
-0.0015365567
0.00069125162
-0.0012982047
0.0006843433
-0.0010177145
0.00067632009
-0.00070095649
0.00066740432
-0.00035502707
0.00065753691
-6.462536e-07
0.00064640253
0.00036743686
0.00063360492
0.00061824419
0.00075376233
-0.0020377242
0.00072549224
0.0020227602
-0.002043811
0.00072527655
-0.0020345269
0.00072477142
-0.0019991389
0.00072367918
-0.0019260157
0.00072161417
-0.001805656
0.00071817657
-0.0016337654
0.00071310309
-0.0014118207
0.00070639339
-0.0011443575
0.00069829948
-0.00083656878
0.00068911944
-0.00049517395
0.00067892299
-0.00012850146
0.00066747826
0.00023443643
0.00065447907
0.00063935286
0.00062526614
-0.0020415895
0.00074520842
0.0020245164
-0.0020531353
0.00074508377
-0.0020539231
0.00074476116
-0.0020346763
0.00074399788
-0.0019836854
0.00074242239
-0.0018893794
0.00073957217
-0.0017439296
0.00073502857
-0.0015455598
0.00072859235
-0.0012974268
0.0007203825
-0.0010040801
0.00071073659
-0.00067085175
0.00069994369
-0.00030677546
0.00068804368
5.9352554e-05
0.00067493079
0.00066098638
0.00045170206
-0.0020437283
0.00076491385
0.0020254203
-0.0020587941
0.00076487742
-0.0020667455
0.00076476952
-0.002060139
0.00076448022
-0.0020282406
0.00076379931
-0.0019587906
0.00076238384
-0.0018416107
0.00075977553
-0.0016722342
0.00075549626
-0.0014529933
0.00074921844
-0.0011897078
0.00074094102
-0.00088791267
0.0007309948
-0.00055508528
0.0007198492
-0.00020160934
0.0007079135
0.00069568711
0.00013420639
0.00086964139
0.00084141613
-0.00094606463
0.00079341594
0.00084140768
0.00071772293
0.0008413783
0.00064334477
0.00084128677
0.00057179764
0.00084103724
0.00050554424
0.00084043541
0.00044794904
0.00083914433
0.00040283027
0.00083670076
0.00037368357
0.00083258291
0.0003626861
0.0008263369
0.00036989574
0.00081781474
0.00039408523
0.00080735132
0.00043479217
0.0007953618
0.00078238204
0.00048518123
0.00086955298
0.00091791089
-0.00094604218
0.00079308793
0.00091791045
0.00071672295
0.00091790806
0.00064068611
0.00091789617
0.00056560052
0.00091785075
0.00049271766
0.00091770545
0.00042416928
0.00091730467
0.00036327182
0.00091633248
0.00031447253
0.00091428588
0.00028233359
0.00091055435
0.00026936149
0.00090448399
0.00027519489
0.00089580449
0.00030132552
0.00088492225
0.00087270295
0.00034699525
0.0008695489
0.0009944036
-0.0009460415
0.00079305671
0.00099440355
0.00071656681
0.00099440332
0.00064008644
0.00099440222
0.00056364707
0.00099439778
0.00048761723
0.00099438164
0.00041312453
0.00099432839
0.00034247976
0.00099410321
0.00027909709
0.00099338577
0.00022751827
0.00099158378
0.00019240619
0.00098797199
0.00017711759
0.00098170675
0.00018424919
0.00097262247
0.00096126487
0.00021909318
0.00086954874
0.0010708962
-0.00094604133
0.00079305617
0.0010708962
0.00071656378
0.0010708962
0.00064007217
0.0010708961
0.00056358448
0.0010708958
0.00048711919
0.0010708944
0.00041075455
0.0010708882
0.00033505888
0.0010708601
0.00026259789
0.0010707412
0.00019761687
0.0010701614
0.00014413116
0.0010684197
0.00010823012
0.001064554
9.4568147e-05
0.0010579307
0.0010473582
0.00011073134
0.00086954867
0.0011473888
0.00079305608
0.0011473888
0.00071656352
0.0011473888
0.00064007104
0.0011473888
0.00056357906
0.0011473888
0.00048708983
0.0011473886
0.00041061468
0.0011473878
0.00033421484
0.0011473838
0.00025817941
0.0011473651
0.00018492868
0.00114727
0.00011871136
0.0011467167
6.5742729e-05
0.0011447285
3.1120831e-05
0.0011405827
0.0011318219
2.4226509e-05
0.00086954866
0.00079305608
0.00071656349
0.00064007093
0.00056357841
0.0004870863
0.00041059646
0.00033411968
0.00025770623
0.00018168601
0.00010798444
4.255776e-05
-9.2210915e-06
-0.0011561465
0.0010207325
-0.0010744555
-0.00068780946
0.0010206779
-0.0010795514
-0.00021209356
0.0010140678
-0.0010819862
0.00023700724
0.00099864111
-0.0010779554
0.00058413797
0.00097758766
-0.0010651397
0.00073771627
0.00095574701
-0.0010464906
0.00059279848
0.00093520418
-0.0010259581
0.00021879246
0.00091870574
-0.0010063696
-0.00032561439
0.00090718278
-0.00098886147
-0.00066076176
0.00089464068
-0.00097023101
-0.00055372055
0.00091288302
-0.0009804939
-0.00014799657
0.00093232025
-0.00099971712
0.00011829718
0.00093005401
-0.0010075627
0.00087184076
-0.00095619523
-0.00068115294
0.00097207943
-0.0002018521
0.00096421838
0.00027526235
0.00094754263
0.00068442783
0.00092483913
0.0009141863
0.0009006652
0.00091936613
0.00087888389
0.00064247136
0.00086030186
0.00010887053
0.00084851376
-0.00045018402
0.00084462026
-0.00064718249
0.00083581839
-0.00044139161
0.0008581915
-5.2360871e-05
0.0008733542
0.00015805428
0.00086771326
0.00080444364
-0.0002327646
0.00092771854
0.00026134677
0.00091125797
0.00072346272
0.0008872035
0.0010476555
0.0008606362
0.0011667244
0.00083551178
0.0010473681
0.0008151207
0.00064744028
0.00079965588
3.0038957e-06
0.0007936
-0.00053051521
0.00079621887
-0.00057952817
0.00079043056
-0.0003101036
0.00081338637
-1.2671509e-05
0.00082137955
0.00015176143
0.00081674373
0.00075109936
0.00017742949
0.00088867112
0.00068211596
0.00086496127
0.001085057
0.00083609267
0.0013298153
0.00080769613
0.0013563656
0.00078223996
0.0011323098
0.0007639938
0.00061362668
0.00075233927
-0.00012522447
0.00075152103
-0.00054912815
0.00075867941
-0.00047279799
0.00075668218
-0.0002080965
0.0007761782
2.9455124e-06
0.00077853703
0.00012460802
0.00077559068
0.00071018239
0.00054715738
0.00085588146
0.0010235808
0.0008267062
0.0013667587
0.00079476495
0.0015540358
0.0007651817
0.0015090269
0.00073975924
0.0012030074
0.00072333041
0.00057999188
0.00071613477
-0.00020117492
0.00071942735
-0.00052972988
0.00072991151
-0.00036749963
0.00073232335
-0.0001153491
0.00074653711
1.3460452e-05
0.00074512845
9.625564e-05
0.00074333676
0.00067971586
0.0008417535
0.00083105804
0.0012818929
0.0007975871
0.0015822395
0.00076354532
0.0017285467
0.00073266616
0.0016349356
0.00070716468
0.0012667161
0.00069200409
0.00055857125
0.00068875751
-0.00023531498
0.000696151
-0.00050272725
0.0007098739
-0.00028864116
0.00071402502
-4.8003169e-05
0.00072409153
3.2704603e-05
0.00072076852
8.0190213e-05
0.00071911813
0.00065737861
0.0010584932
0.00081522922
0.0014706395
0.00077834089
0.0017454705
0.00074217541
0.0018683043
0.00070977957
0.0017466654
0.00068352596
0.0013369291
0.00066887057
0.00056875435
0.00066807317
-0.00023619054
0.00068035808
-0.00047474122
0.0006978567
-0.0002381232
0.00070126081
-4.6735907e-06
0.00070883809
5.5380656e-05
0.00070468497
7.6701384e-05
0.00070268902
0.00064171118
0.0012077356
0.00080954626
0.0016034089
0.00076941415
0.0018669654
0.00073069375
0.0019828184
0.00069618167
0.0018535954
0.00066819558
0.0014243254
0.0006529531
0.00062102081
0.00065272726
-0.00021190791
0.00066974482
-0.00045776721
0.00069274399
-0.00021286446
0.00069411211
2.5932916e-05
0.00070011126
7.5236592e-05
0.00069606772
8.2712926e-05
0.00069314947
0.00063104176
0.0012965617
0.00081471981
0.0016918119
0.00077131218
0.0019577733
0.00072939285
0.0020822071
0.00069193305
0.00197055
0.0006610782
0.0015437205
0.00064368934
0.00073108429
0.00064208576
-0.00015495735
0.0006613243
-0.00045495525
0.00069417556
-0.00020864033
0.00069276392
4.1052866e-05
0.00069747567
9.15655e-05
0.00069500728
0.00010050025
0.00069010619
0.00062524518
0.001327403
0.00083114958
0.0017371396
0.00078409723
0.0020193624
0.00073826195
0.0021676935
0.00069682857
0.0020994754
0.00066192426
0.0017024368
0.00064056606
0.00092348064
0.00063572007
-3.6143215e-05
0.00065302708
-0.0004645582
0.000699892
-0.00022897968
0.0006979337
3.4346956e-05
0.00069995861
0.00010315188
0.00070092855
0.00013283009
0.00069214943
0.00062346978
0.0012988744
0.00085975222
0.0017363947
0.00080881012
0.0020451103
0.00075846235
0.002244104
0.0007121558
0.0022176978
0.00067198668
0.0018703629
0.0006450028
0.0011757463
0.00063503628
0.00013528915
0.00064640074
-0.00047175283
0.00070640105
-0.00028948178
0.00071013657
-2.7189202e-06
0.00070720957
0.00011100184
0.00071293575
0.00018183269
0.00069913347
0.00062620812
0.0011985798
0.0009011203
0.0016804032
0.00084619896
0.0020311711
0.00078965702
0.0022599896
0.00073676478
0.0023116335
0.00068979726
0.002055564
0.00065444911
0.0014675546
0.00063783715
0.00038260649
0.00063983575
-0.00044724268
0.00070644111
-0.00037859001
0.00072813957
-5.9991859e-05
0.00072373582
0.00011699449
0.00072737978
0.00025348578
0.00070905887
0.0006336453
0.0010522126
0.00095391384
0.0015852785
0.00089625906
0.0019843529
0.00083365258
0.0022585333
0.00077459789
0.0023913182
0.00072095585
0.0022393952
0.00067767852
0.0017639796
0.00065319763
0.00073808187
0.00064547733
-0.00032040097
0.00069802512
-0.00051313726
0.00074841913
-0.00018310621
0.00074958984
0.00013959068
0.00074950424
0.00032762061
0.00072161121
0.00064743333
0.00068891184
0.00102095
0.0012977672
0.00095701419
0.0017870356
0.0008877826
0.0021463261
0.00081973848
0.00236198
0.00075717408
0.0023788842
0.00070441894
0.0020549184
0.00066578857
0.0012785082
0.00065490503
8.0785498e-05
0.00069463175
-0.00061826949
0.00076786954
-0.00040288358
0.00077746354
0.00011531818
0.00077335769
0.00038729412
0.00073760354
0.00066180608
-0.0017639277
-0.014062302
0.014095084
-0.0017967103
-0.014062302
0.014127867
-0.0017967102
-0.0017967103
0.014095084
-0.0018294928
-0.014062302
0.014127867
-0.0018294928
0.014160649
-0.0018294928
-0.0018294928
0.014095084
-0.0018622753
-0.014062302
0.014127867
-0.0018622753
0.014160649
-0.0018622753
0.014193432
-0.0018622753
0.014226215
-0.0018622753
-0.0018622753
0.014095084
-0.0018950579
-0.014062302
0.014127867
-0.0018950579
0.014160649
-0.0018950579
0.014193432
-0.0018950579
0.014226215
-0.0018950578
0.014258997
-0.0018950579
0.01429178
-0.0018950579
-0.0018950579
0.014095084
-0.0019278404
-0.014062302
0.014127867
-0.0019278404
0.014160649
-0.0019278404
0.014193432
-0.0019278404
0.014226215
-0.0019278404
0.014258997
-0.0019278404
0.01429178
-0.0019278404
0.014324562
-0.0019278404
0.014357345
-0.0019278404
-0.0019278404
0.014095084
-0.0019606241
-0.014062301
0.014127867
-0.0019606231
0.014160649
-0.0019606229
0.014193432
-0.0019606228
0.014226215
-0.0019606227
0.014258997
-0.0019606226
0.01429178
-0.0019606226
0.014324562
-0.0019606225
0.014357345
-0.0019606226
0.014390127
-0.0019606227
0.01442291
-0.0019606228
-0.0019606229
0.014095081
-0.0019934006
-0.014062299
0.014127867
-0.0019933807
0.014160651
-0.0019933565
0.014193434
-0.0019933217
0.014226217
-0.0019932832
0.014259
-0.0019932539
0.014291782
-0.0019932439
0.014324564
-0.0019932554
0.014357346
-0.001993283
0.014390128
-0.0019933178
0.01442291
-0.0019933507
0.014455693
-0.0019933759
-0.0019933918
0.014095112
-0.014061692
0.01412802
0.014160917
0.014193829
0.01422672
0.014259553
0.014292314
0.014325016
0.014357686
0.014390354
0.014423042
0.01445576
0.014488505
0.014521268
-0.01538194
-0.0019967786
-0.015501907
-0.0019967787
-0.015621874
-0.0019967786
-0.0019967787
-0.015741841
-0.015142006
-0.0018768116
-0.015261973
-0.0018768115
-0.01538194
-0.0018768116
-0.015501907
-0.0018768115
-0.015621874
-0.0018768116
-0.0018768116
-0.015741841
-0.014902071
-0.0017568444
-0.015022038
-0.0017568445
-0.015142006
-0.0017568445
-0.015261973
-0.0017568445
-0.01538194
-0.0017568444
-0.015501907
-0.0017568445
-0.015621874
-0.0017568444
-0.0017568446
-0.015741841
-0.014662137
-0.0016368774
-0.014782104
-0.0016368774
-0.014902071
-0.0016368774
-0.015022038
-0.0016368774
-0.015142006
-0.0016368774
-0.015261973
-0.0016368774
-0.01538194
-0.0016368774
-0.015501907
-0.0016368774
-0.015621874
-0.0016368774
-0.0016368773
-0.015741841
-0.014422203
-0.0015169103
-0.01454217
-0.0015169103
-0.014662137
-0.0015169103
-0.014782104
-0.0015169103
-0.014902071
-0.0015169103
-0.015022038
-0.0015169103
-0.015142006
-0.0015169103
-0.015261973
-0.0015169104
-0.01538194
-0.0015169103
-0.015501907
-0.0015169104
-0.015621874
-0.0015169103
-0.0015169103
-0.015741841
-0.014182269
-0.0013969432
-0.014302236
-0.0013969433
-0.014422203
-0.0013969432
-0.01454217
-0.0013969433
-0.014662137
-0.0013969432
-0.014782104
-0.0013969433
-0.014902071
-0.0013969433
-0.015022039
-0.0013969432
-0.015142006
-0.0013969433
-0.015261973
-0.0013969432
-0.01538194
-0.0013969433
-0.015501907
-0.0013969432
-0.015621874
-0.0013969433
-0.0013969432
-0.015741841
-0.014182269
-0.0012769762
-0.014302236
-0.0012769761
-0.014422203
-0.0012769762
-0.01454217
-0.0012769761
-0.014662137
-0.0012769762
-0.014782104
-0.0012769761
-0.014902071
-0.0012769762
-0.015022038
-0.0012769762
-0.015142006
-0.0012769761
-0.015261973
-0.0012769762
-0.01538194
-0.0012769761
-0.015501907
-0.0012769762
-0.015621874
-0.0012769761
-0.0012769762
-0.015741841
-0.014182269
-0.0011570091
-0.014302236
-0.001157009
-0.014422203
-0.0011570091
-0.01454217
-0.0011570091
-0.014662137
-0.001157009
-0.014782104
-0.0011570092
-0.014902071
-0.001157009
-0.015022039
-0.001157009
-0.015142006
-0.001157009
-0.015261973
-0.0011570088
-0.01538194
-0.0011570086
-0.015501907
-0.0011570084
-0.015621874
-0.001157008
-0.0011570078
-0.015741841
-0.014182269
-0.001037042
-0.014302236
-0.001037042
-0.014422203
-0.001037042
-0.01454217
-0.001037042
-0.014662137
-0.0010370419
-0.014782104
-0.0010370418
-0.014902071
-0.0010370413
-0.015022039
-0.0010370407
-0.015142006
-0.0010370394
-0.015261973
-0.0010370356
-0.015381941
-0.0010370284
-0.015501909
-0.001037018
-0.015621877
-0.0010370068
-0.0010369992
-0.015741846
-0.014182269
-0.00091707492
-0.014302236
-0.00091707498
-0.014422203
-0.00091707501
-0.01454217
-0.00091707499
-0.014662138
-0.00091707489
-0.014782105
-0.00091707315
-0.014902072
-0.00091706486
-0.015022039
-0.00091704174
-0.01514201
-0.0009170052
-0.01526199
-0.00091695492
-0.015381985
-0.00091687387
-0.015501995
-0.00091674295
-0.015622007
-0.00091660544
-0.00091649284
-0.01574201
-0.014182269
-0.00079710776
-0.014302235
-0.00079710781
-0.014422201
-0.00079710801
-0.014542164
-0.00079710741
-0.014662126
-0.00079710596
-0.014782095
-0.00079710504
-0.014902091
-0.00079708761
-0.015022095
-0.00079696912
-0.015142049
-0.00079657609
-0.01526197
-0.00079565003
-0.015382025
-0.00079406798
-0.015502239
-0.00079169652
-0.015622586
-0.00078845649
-0.0007852653
-0.015743141
-0.014182265
-0.00067713755
-0.014302219
-0.00067712409
-0.014422151
-0.00067709947
-0.014542023
-0.00067706383
-0.014661726
-0.0006770335
-0.014781128
-0.00067702199
-0.01490026
-0.00067707939
-0.015019568
-0.00067705098
-0.015140135
-0.00067582131
-0.01526292
-0.0006707688
-0.015387927
-0.00065891231
-0.015516681
-0.00063935177
-0.015649721
-0.00061447721
-0.00059161354
-0.015783571
-0.014182287
-0.00055718615
-0.014302259
-0.00055712826
-0.014422076
-0.00055681846
-0.014541441
-0.00055606093
-0.014659628
-0.00055528567
-0.014773336
-0.00055510246
-0.014875789
-0.00055628572
-0.014962
-0.00055936593
-0.015040434
-0.00056372946
-0.015138544
-0.00056561428
-0.015286531
-0.00055796042
-0.015485268
-0.00053397858
-0.015692228
-0.01418106
-0.014300542
-0.014420836
-0.014540624
-0.014656415
-0.014756191
-0.014796678
-0.014740861
-0.014630402
-0.014558662
-0.014532572
-0.001081845
0.0014356477
-0.00087334169
0.0014651547
-0.00066196485
0.0014715626
-0.00048131645
0.0014627198
-0.00034423759
0.0014458183
-0.00025595196
0.0014197197
-0.00019732985
0.001404518
-0.00016338141
0.0013916852
-0.00016225413
0.0013819076
-0.00017448435
0.0013730976
-0.0001900338
0.0013674128
-0.00017647252
0.0013597702
0.0013725135
-0.00097097442
0.0013522033
-0.00082646925
0.0013706776
-0.0006778936
0.0013730073
-0.00053632074
0.0013690601
-0.00039997679
0.0013640604
-0.00027495429
0.0013561517
-0.00017772874
0.0013493762
-0.00012718807
0.0013393253
-0.00013043812
0.00132879
-0.00015968027
0.0013178306
-0.00019196506
0.0013114918
-0.00018408402
0.0013035082
-0.00011846946
0.0013191833
0.0012898183
-0.00089559166
0.0012826833
-0.00079347426
0.0012921599
-0.00067131742
0.0012967095
-0.00053140455
0.001300468
-0.00038178195
0.0013040275
-0.00023874869
0.0013042434
-0.00013136904
0.0012995108
-8.4278233e-05
0.0012896608
-0.00010363309
0.001277751
-0.00015665687
0.0012649154
-0.00020311367
0.001258588
-0.00019435864
0.0012518797
-0.00012245467
0.0012698214
0.0012382593
-0.00084624438
0.0012348041
-0.00075335825
0.0012398535
-0.00062916457
0.0012460546
-0.00047772824
0.0012533618
-0.00031639519
0.0012594696
-0.00016882651
0.0012603347
-6.6333992e-05
0.0012537492
-3.1887343e-05
0.0012423248
-7.3911223e-05
0.001228634
-0.00015398835
0.0012140209
-0.00020985708
0.0012082153
-0.00019301479
0.0012045059
-0.00011347793
0.0012243603
0.0011914658
-0.00081073932
0.0012009724
-0.00070623233
0.0012051895
-0.00056556132
0.0012114766
-0.00040187054
0.0012185261
-0.00023438559
0.0012231535
-9.0400048e-05
0.0012208882
-1.7851654e-06
0.0012110483
1.7242678e-05
0.0011974113
-5.2449152e-05
0.001182046
-0.00016041633
0.0011659074
-0.00021939801
0.0011609624
-0.00018814657
0.0011614382
-0.00010023093
0.0011818739
0.0011462696
-0.0007719105
0.0011715376
-0.00064971399
0.0011763145
-0.00049227071
0.0011827064
-0.00031909819
0.0011885437
-0.00014980821
0.0011900077
-1.4587853e-05
0.0011835223
6.3676885e-05
0.0011704525
5.6480994e-05
0.0011548241
-3.9492111e-05
0.0011380449
-0.00017306367
0.001120698
-0.00022715225
0.001117224
-0.00017644601
0.0011220512
-8.0787421e-05
0.001141739
0.0011031125
-0.00072646535
0.0011445896
-0.00058563581
0.001149729
-0.00041515284
0.0011558147
-0.00023534772
0.0011598227
-6.7966364e-05
0.0011576135
6.3634474e-05
0.0011471608
0.00012087567
0.0011314669
8.7726886e-05
0.0011142866
-3.5604367e-05
0.0010965286
-0.00018799486
0.0010781959
-0.00023141791
0.0010773395
-0.00015672039
0.0010865002
-5.623453e-05
0.0011041948
0.00106325
-0.0006750706
0.0011192836
-0.00051718348
0.0011245277
-0.00033705105
0.0011297366
-0.00015348314
0.001131383
7.2954549e-06
0.0011254653
0.00013560379
0.0011117458
0.0001686529
0.0010942349
0.00010999427
0.0010758565
-4.0805327e-05
0.0010577506
-0.00020363288
0.0010389612
-0.00023187217
0.0010414859
-0.00013262437
0.001054615
-3.0447161e-05
0.0010694654
0.0010261367
-0.00061718674
0.0010955804
-0.00044539281
0.0011007278
-0.00025841244
0.0011047374
-7.4862858e-05
0.0011037609
8.8423416e-05
0.0010944698
0.00019928077
0.0010783834
0.00020493309
0.0010592493
0.00012179669
0.0010401841
-5.3888419e-05
0.0010221759
-0.00021986133
0.0010031318
-0.00023169215
0.0010092826
-0.00010868788
0.0010258101
-5.6811634e-06
0.0010372007
0.0009906604
-0.00055639779
-0.00037396311
-0.00018189074
-2.8012551e-06
0.00016218993
0.00025670246
0.0002375541
0.00012915549
-6.7774542e-05
-0.00023327452
-0.00022927724
-8.5948764e-05
1.8210962e-05
0.014398834
0.014276398
0.014153962
-0.00021583464
0.00095498591
0.00083380544
0.00045404285
0.00088143527
0.0010122377
0.00081422117
0.0014423393
0.00074856084
0.0017131479
0.00069005856
0.0018231186
0.0006426927
0.0016103403
0.00060772882
0.00096643029
0.00060558679
-0.00019301807
0.00065560584
-0.00091938169
0.00073605132
-0.00067595799
0.00074951968
3.1298975e-06
0.00074086515
0.00036806848
0.00070215423
0.0006210888
7.419256e-05
0.00047828384
0.00072108807
0.00120857
0.0015720332
0.001784926
0.0018477753
0.0016013015
0.00090560791
-0.00027291454
-0.000935386
-0.00064327159
6.9438003e-06
0.00035719967
0.0006793955
0.0012913706
0.00093943659
0.00053952309
0.0017144103
0.0014481939
0.00039923163
0.0020995355
0.0024506529
-0.0030063298
0.016016798
0.0030408238
0.016016798
-0.0030075716
0.015983546
0.0030408237
-0.0029743194
0.015983546
0.015983546
-0.0030082456
0.015950968
0.0030408238
-0.0029756674
0.015950968
-0.0029430893
0.015950968
0.015950968
-0.0030084358
0.01591858
0.0030408238
-0.002976048
0.01591858
-0.00294366
0.01591858
-0.0029112721
0.01591858
-0.0028788843
0.01591858
0.01591858
-0.0030094974
0.015887254
0.0030408237
-0.002978171
0.015887254
-0.0029468447
0.015887254
-0.0029155183
0.015887254
-0.0028841918
0.015887253
-0.0028528655
0.015887254
0.015887254
-0.0030122295
0.015858659
0.0030408238
-0.0029836352
0.015858659
-0.0029550407
0.015858659
-0.0029264464
0.015858659
-0.0028978521
0.015858659
-0.0028692578
0.015858659
-0.0028406634
0.015858659
0.015858659
-0.0030142384
0.015832074
0.0030408237
-0.002987653
0.015832074
-0.0029610676
0.015832074
-0.0029344823
0.015832074
-0.0029078968
0.015832074
-0.0028813115
0.015832074
-0.002854726
0.015832074
-0.0028281381
0.015832074
0.015832079
-0.0030090041
0.015800254
0.0030408238
-0.0029771845
0.015800254
-0.0029453648
0.015800254
-0.0029135452
0.015800254
-0.0028817257
0.015800254
-0.002849906
0.015800254
-0.0028180863