/*--------------------------------*- C++ -*----------------------------------*\
| =========                 |                                                 |
| \\      /  F ield         | OpenFOAM: The Open Source CFD Toolbox           |
|  \\    /   O peration     | Version:  2206                                  |
|   \\  /    A nd           | Website:  www.openfoam.com                      |
|    \\/     M anipulation  |                                                 |
\*---------------------------------------------------------------------------*/
FoamFile
{
    version     2.0;
    format      ascii;
    arch        "LSB;label=32;scalar=64";
    class       volScalarField;
    location    "0.02";
    object      rho;
}
// * * * * * * * * * * * * * * * * * * * * * * * * * * * * * * * * * * * * * //

dimensions      [1 -3 0 0 0 0 0];

internalField   nonuniform List<scalar> 
1396
(
0.98536204
0.99094181
0.99630679
0.99950011
1.0008603
1.000927
1.000564
1.0002312
1.0000541
0.99999882
0.99999612
0.98923152
0.99266754
0.9955892
0.99874402
1.0006717
1.0009567
1.0005908
1.0002296
1.0000403
0.99999604
0.99999349
0.99051019
0.99375632
0.99573924
0.99855003
1.0004644
1.0009203
1.0005908
1.0002214
1.0000285
0.99999118
0.9999892
0.99220954
0.99429122
0.99572989
0.99837842
1.0002793
1.0008443
1.0005709
1.0002042
1.0000131
0.99998308
0.99998204
0.99278229
0.99428853
0.99573672
0.99817809
1.0000653
1.0007526
1.0005422
1.0001839
0.99999753
0.99997048
0.99996799
0.99247571
0.99355851
0.99549254
0.99797956
0.99989166
1.0006723
1.0005089
1.0001574
0.99997752
0.99995191
0.99994369
0.99131983
0.99230239
0.99508409
0.99783779
0.99977977
1.0006128
1.0004731
1.0001252
0.99994923
0.99992158
0.99990553
0.98957292
0.9907986
0.99459372
0.99776268
0.99973068
1.0005736
1.000434
1.0000843
0.99992973
0.99987741
0.99984925
0.98758554
0.98943344
0.99411714
0.99773349
0.99971954
1.0005439
1.0003868
1.0000277
0.99988965
0.99982446
0.9997731
0.98555536
0.98834957
0.99377016
0.99773049
0.99972341
1.0005074
1.0003226
0.99995015
0.99982868
0.99974487
0.99966398
0.9835417
0.98748953
0.99364011
0.99776897
0.99972878
1.0004553
1.000238
0.99991204
0.99973956
0.99963069
0.99950911
0.98160917
0.98673905
0.99371389
0.99784463
0.99973802
1.0004003
1.0001496
0.99984572
0.99965916
0.99949572
0.99931805
0.97990976
0.9859702
0.99387959
0.99794104
0.99975053
1.0003475
1.0000539
0.99975494
0.99952076
0.99930411
0.99909215
0.9852596
0.9940188
0.99802608
0.99974137
1.0002607
0.9999494
0.99954026
0.99924339
0.99899737
0.99879612
0.99999441
0.99999051
0.99998201
0.99996678
0.9999406
0.99989721
0.9998314
0.99973833
0.99960723
0.99943291
0.99925179
0.99912873
0.99904629
0.99890833
0.99998887
0.99997977
0.99996116
0.99992618
0.99986474
0.99976485
0.99961926
0.99943377
0.99923173
0.9990556
0.99896479
0.99899943
0.99904364
0.99877734
0.99997986
0.99996139
0.99992407
0.99985538
0.9997403
0.99956793
0.99934621
0.99911628
0.99894708
0.99889861
0.99898348
0.99913454
0.9990536
0.99810354
0.99996742
0.99993561
0.99987252
0.99976048
0.99958449
0.99934695
0.99908994
0.99890311
0.99888358
0.99904694
0.99926975
0.99929335
0.99861769
0.99637868
0.999955
0.99990886
0.99981879
0.99966389
0.99943519
0.99915891
0.99892123
0.99885566
0.99905577
0.99944062
0.99969933
0.99934959
0.99774903
0.9938365
0.99994676
0.9998892
0.99977759
0.99958944
0.99932443
0.99903541
0.99885099
0.99893694
0.99936354
0.9999382
1.0001564
0.99932591
0.99672316
0.99106874
0.99994515
0.99988208
0.99975892
0.99955168
0.99926635
0.9989767
0.99884573
0.99906591
0.9996895
1.0004329
1.0006253
0.99940231
0.99594753
0.98882134
0.99995011
0.9998885
0.99976541
0.99955439
0.99926156
0.99896995
0.99886576
0.99917023
0.99994395
1.0008592
1.0011286
0.99974662
0.99578823
0.98770381
0.99995956
0.99990552
0.99979341
0.99959354
0.99930513
0.99900578
0.99888966
0.9992095
1.0000705
1.0011661
1.0016631
1.000436
0.99646412
0.98809027
0.99997078
0.99992837
0.99983589
0.99966132
0.99939212
0.99908553
0.99892244
0.99917972
1.0000397
1.0012949
1.0021657
1.0014519
0.99804915
0.99019519
0.99998123
0.99995148
0.99988314
0.99974442
0.99951105
0.9992098
0.99898379
0.99910832
0.99985002
1.0011651
1.0024412
1.0025135
1.0001459
0.99358646
0.99998927
0.99997081
0.99992593
0.99982762
0.99964482
0.99937401
0.99910195
0.99906139
0.9995695
1.0007714
1.0023257
1.0032781
1.0022488
0.99764692
0.99999437
0.99998458
0.99995813
0.99989639
0.99976862
0.99955024
0.99927047
0.99908577
0.99930055
1.000209
1.001777
1.0033863
1.0037291
1.0011754
0.99999676
0.9999918
0.99997764
0.99994167
0.99986128
0.99970782
0.99947386
0.99923564
0.99922365
0.99979263
1.0011752
1.0031457
1.0049191
1.0051159
0.99999865
0.99999783
0.99999518
0.99998757
0.99996803
0.99992344
0.99983564
0.99969372
0.9995269
0.99945844
0.999757
1.0007706
1.0022489
1.0033921
0.99999901
0.99999893
0.99999858
0.9999973
0.99999308
0.9999808
0.99994917
0.99988125
0.99976268
0.99959676
0.99950256
0.99983929
1.0008453
1.0024031
0.99999904
0.99999904
0.99999903
0.99999899
0.99999881
0.99999803
0.99999418
0.99997565
0.99991222
0.99977887
0.99960775
0.99953442
0.99988702
1.0011926
0.99999904
0.99999904
0.99999904
0.99999904
0.99999901
0.9999989
0.99999841
0.99999624
0.99998701
0.99994385
0.999815
0.99963696
0.99961644
1.0001472
0.99999904
0.99999904
0.99999904
0.99999904
0.99999904
0.99999903
0.99999896
0.99999862
0.99999702
0.99998947
0.99995669
0.99983477
0.99968714
0.99974449
0.99999904
0.99999904
0.99999904
0.99999904
0.99999904
0.99999904
0.99999903
0.99999897
0.99999869
0.99999723
0.99999095
0.99995457
0.99986077
0.99974197
0.99845137
0.99565521
0.98783875
0.97117913
0.94697476
0.92005017
0.89442114
0.87141169
0.85618472
0.84113158
0.85175482
0.86430254
0.86291839
0.84237352
0.99689141
0.99063145
0.97587648
0.95234892
0.92441512
0.89652228
0.87148829
0.84935139
0.83805688
0.82319631
0.84015429
0.85391286
0.84845544
0.82045462
0.99368974
0.9821966
0.9608622
0.93290717
0.9038216
0.87574366
0.85150864
0.83065712
0.82146685
0.8092959
0.83088105
0.84199892
0.83635616
0.80229238
0.98862608
0.97129772
0.94506596
0.91515871
0.88566736
0.85803032
0.83453701
0.81498261
0.80636717
0.79851308
0.82254093
0.82851249
0.82411986
0.78662656
0.98258681
0.96042843
0.93126982
0.90062872
0.87081948
0.84411878
0.82103114
0.80134356
0.79251543
0.79191736
0.81573969
0.81643063
0.81381664
0.77487876
0.97687009
0.95103367
0.92062542
0.88924072
0.85959296
0.83321593
0.81091178
0.789251
0.780405
0.78698701
0.80884875
0.80615404
0.80423558
0.76483453
0.97226946
0.94431081
0.91306233
0.88107087
0.8512712
0.82485683
0.80253517
0.77862489
0.7709753
0.78087557
0.80163932
0.79724962
0.79543188
0.75556308
0.96965742
0.94038028
0.90839207
0.87584749
0.84545302
0.81850279
0.79493184
0.76976732
0.76252914
0.77306015
0.79380843
0.78917533
0.78728219
0.74583986
0.96938291
0.93945136
0.90661269
0.87330706
0.84186287
0.81387144
0.78834144
0.76151674
0.75411199
0.76304184
0.78494101
0.78173725
0.77967203
0.73518119
0.9719346
0.94181292
0.90824493
0.87392141
0.84115749
0.8115315
0.78396777
0.75436346
0.74649578
0.75162645
0.77503962
0.7761057
0.7732867
0.72485888
0.97693356
0.94721716
0.91311402
0.87749597
0.84320384
0.81140583
0.78203129
0.74889759
0.73888913
0.73905547
0.76244748
0.77098527
0.76690533
0.71421075
0.9837978
0.95584081
0.92151441
0.88461426
0.84859877
0.81436809
0.78305379
0.74601841
0.73286962
0.72650523
0.7471962
0.76631831
0.76136126
0.7057522
0.99078379
0.96579933
0.9317218
0.8937787
0.85604715
0.81914881
0.78576342
0.74584968
0.72721213
0.71524434
0.73017815
0.7584862
0.75507503
0.69897348
1.000539
0.98337298
0.95265627
0.91490068
0.87471957
0.83483011
0.79746719
0.75556682
0.72580399
0.70711479
0.71433873
0.74750228
0.74762571
0.69650512
0.99999904
0.99999904
0.99999904
0.99999904
0.99999904
0.99999904
0.99999904
0.99999904
0.99999904
0.99999904
0.99999904
0.99999904
0.99999904
0.99999904
0.99999904
0.99999904
0.99999904
0.99999904
0.99999904
0.99999904
0.99999904
0.99999904
0.99999904
0.99999904
0.99999904
0.99999904
0.99999904
0.99999904
0.99999904
0.99999904
0.99999904
0.99999904
0.99999904
0.99999904
0.99999904
0.99999904
0.99999904
0.99999904
0.99999904
0.99999904
0.99999904
0.99999904
0.99999904
0.99999904
0.99999904
0.99999904
0.99999904
0.99999904
0.99999903
0.99999903
0.99999903
0.99999904
0.99999904
0.99999904
0.99999904
0.99999904
0.99999904
0.99999899
0.99999885
0.99999868
0.99999845
0.99999822
0.99999808
0.99999807
0.99999819
0.99999838
0.99999859
0.99999878
0.99999891
0.99999898
0.99999901
0.99999904
0.99999904
0.99999904
0.99999904
0.99999904
0.99999904
0.99999904
0.99999904
0.99999904
0.99999904
0.99999904
0.99999904
0.99999904
0.99999904
0.99999904
0.99999904
0.99999904
0.99999904
0.99999904
0.99999904
0.99999904
0.99999904
0.99999904
0.99999904
0.99999904
0.99999904
0.99999904
0.99999904
0.99999904
0.99999904
0.99999904
0.99999904
0.99999904
0.99999904
0.99999904
0.99999904
0.99999904
0.99999904
0.99999904
0.99999904
0.99999904
0.99999904
0.99999904
0.99999904
0.99999904
0.99999904
0.99999904
0.99999904
0.99999904
0.99999904
0.99999904
0.99999904
0.99999904
0.99999904
0.99999904
0.99999904
0.99999904
0.99999904
0.99999904
0.99999904
0.99999904
0.99999904
0.99999904
0.99999904
0.99999904
0.99999904
0.99999904
0.99999904
0.99999904
0.99999904
0.99999904
0.99999904
0.99999904
0.99999904
0.99999904
0.99999904
0.99999904
0.99999904
0.99999904
0.99999904
0.99999904
0.99999904
0.99999904
0.99999904
0.99999904
0.99999904
0.99999904
0.99999904
0.99999904
0.99999904
0.99999904
0.99999904
0.99999904
0.99999904
0.99999903
0.99999901
0.99999904
0.99999904
0.99999904
0.99999904
0.99999904
0.99999904
0.99999905
0.99999905
0.99999907
0.99999911
0.99999915
0.99999917
0.9999991
0.99999888
0.99999904
0.99999904
0.99999904
0.99999905
0.99999906
0.9999991
0.99999926
0.99999964
1.0000005
1.000002
1.0000038
1.000003
0.99999339
0.99997709
0.99999904
0.99999903
0.99999904
0.99999913
0.99999947
1.0000005
1.0000033
1.000009
1.0000192
1.0000385
1.0000599
1.0000176
0.99985012
0.99967074
0.99999905
0.99999912
0.99999931
1
1.0000031
1.0000138
1.0000382
1.0000903
1.0002309
1.0006252
1.0013979
1.002307
1.0023118
1.0006636
0.99999948
1.0000011
1.000008
1.0000294
1.0000855
1.0002076
1.0004083
1.0006318
1.0017136
1.0047265
1.0096992
1.0165397
0.98413566
0.98304493
0.98611184
0.99014516
0.99186616
0.99086883
0.98387085
0.97055446
0.95461067
0.94014763
0.93128335
0.92380066
0.93211815
0.99381802
0.99342323
0.99400214
0.99512045
0.99406523
0.9893912
0.97842245
0.96192425
0.94429047
0.92870124
0.92083023
0.91362865
0.92366946
0.92301925
0.99818495
0.99813428
0.99807189
0.9972301
0.99401974
0.98621145
0.97167171
0.95276607
0.93394969
0.91762344
0.91109032
0.90472642
0.91598529
0.91436017
0.99979487
0.99948581
0.99878931
0.99693767
0.99203187
0.98137767
0.96379479
0.94319092
0.92364275
0.90697522
0.90195025
0.89720671
0.90939264
0.9065376
1.0000308
0.99948121
0.99839244
0.99560624
0.9889148
0.97529477
0.95523217
0.93341378
0.91351609
0.89688857
0.89338042
0.89097345
0.90336509
0.89822105
0.99956508
0.99901892
0.99760627
0.99378666
0.9849256
0.96830674
0.94632234
0.92362883
0.90371554
0.88737484
0.88532682
0.88563001
0.8975032
0.88951251
0.99914149
0.99856064
0.99664833
0.99152273
0.98005642
0.96066421
0.93725503
0.91390817
0.89434272
0.87833224
0.87799453
0.88120383
0.89171265
0.88120662
0.9988681
0.99813664
0.99549693
0.98872215
0.97439755
0.95265688
0.92821914
0.90442721
0.88554473
0.86975927
0.87157712
0.87767602
0.88603855
0.87290318
0.99867089
0.9976111
0.99397784
0.98510553
0.96790436
0.94433149
0.91907188
0.89522168
0.87721266
0.86152915
0.86579512
0.87427184
0.88013877
0.86421782
0.99846646
0.9969795
0.99227212
0.9811152
0.96128843
0.93608364
0.91023394
0.88637659
0.86917168
0.85328791
0.86006617
0.87038417
0.8736735
0.85539558
0.99999904
0.99999905
0.99999904
0.99999904
0.99529227
0.97410789
0.94238946
0.90371299
0.86276588
0.82146122
0.78364091
0.7506289
0.72494595
0.69323208
0.70745849
0.73999337
0.74025327
0.69093107
0.98987173
0.96366849
0.92939334
0.88959226
0.8486698
0.80752158
0.77068489
0.7391134
0.71510896
0.68641379
0.70090684
0.73552463
0.73348895
0.67987523
1.00303
1.0021777
1.0040924
1.0060262
1.0026311
1.0054624
1.0007695
0.99959958
0.99999904
0.99999904
0.99999904
0.99999904
0.99999904
0.99999904
0.99999904
0.99999904
0.99999904
0.99999904
0.99999904
0.99999904
0.99999904
0.99999904
0.99999904
0.99999904
0.99999904
0.99999904
0.99999904
0.99999904
0.99999904
0.99999904
0.99999904
0.99999904
0.99999904
0.99999904
0.99999904
0.99999904
0.99999904
0.99999904
0.99999904
0.99999904
0.99999904
0.99999904
0.99999904
0.99999904
0.99999904
0.99999904
0.99999902
0.99999904
0.99999904
0.99999904
0.99999904
0.99999904
0.99999904
0.99999904
0.99999904
0.99999902
0.99999854
0.99999904
0.99999904
0.99999904
0.99999904
0.99999904
0.99999904
0.99999904
0.99999904
0.99999902
0.9999986
0.99996304
0.99999904
0.99999904
0.99999904
0.99999904
0.99999904
0.99999904
0.99999904
0.99999904
0.99999903
0.99999856
0.99995758
0.99957005
0.99999904
0.99999904
0.99999904
0.99999904
0.99999904
0.99999904
0.99999904
0.99999904
0.99999904
0.99999904
0.99999904
0.99999904
0.99999904
0.99999904
0.99999904
0.99999904
0.99999904
0.99999904
0.99999904
0.99999904
0.99999904
0.99999904
0.99999904
0.99999904
0.99999904
0.99999904
0.99999904
0.99999904
0.99999904
0.99999904
0.99999904
0.99999904
0.99999904
0.99999904
0.99999904
0.99999904
0.99999904
0.99999904
0.99999904
0.99999904
0.99999904
0.99999904
0.99999904
0.99999904
0.99999904
0.99999904
0.99999904
0.99999904
0.99999904
0.99999904
0.99999904
0.99999904
0.99999904
1.1851769
1.0048645
1.0025909
1.0000179
1.0000006
0.99999905
0.99999904
0.99999904
0.99999904
0.99999904
0.99999904
0.99999904
0.99999904
0.99999904
1.1572151
1.0041359
1.0019145
1.0000139
1
0.99999905
0.99999904
0.99999904
0.99999904
0.99999904
0.99999904
0.99999904
0.99999904
0.99999904
1.1352932
1.0035544
1.0014629
1.000011
0.99999972
0.99999905
0.99999904
0.99999904
0.99999904
0.99999904
0.99999904
0.99999904
0.99999904
0.99999904
1.1176563
1.0030857
1.0011453
1.0000087
0.99999953
0.99999905
0.99999904
0.99999904
0.99999904
0.99999904
0.99999904
0.99999904
0.99999904
0.99999904
1.1038138
1.0026976
1.0009208
1.0000069
0.99999941
0.99999904
0.99999904
0.99999904
0.99999904
0.99999904
0.99999904
0.99999904
0.99999904
0.99999904
1.0930557
1.0023766
1.0007595
1.0000055
0.99999932
0.99999904
0.99999904
0.99999904
0.99999904
0.99999904
0.99999904
0.99999904
0.99999904
0.99999904
1.0854383
1.0021081
1.0006447
1.0000044
0.99999927
0.99999904
0.99999904
0.99999904
0.99999904
0.99999904
0.99999904
0.99999904
0.99999904
0.99999904
0.99999904
0.99999904
0.99999904
0.99999904
0.99999904
0.99999904
0.99999904
0.99999904
0.99999904
0.99999904
0.99999904
0.99999904
0.99999904
0.99999904
0.99999904
0.99999904
0.99999904
0.99999904
0.99999904
0.99999904
0.99999904
0.99999904
0.99999904
0.99999904
0.99999904
0.99999904
0.99999904
0.99999904
0.99999904
0.99999904
0.99999904
0.99999904
0.99999904
0.99999904
0.99999904
0.99999904
0.99999904
0.99999904
0.99999904
0.99999904
0.99999904
0.99999904
0.99999904
0.99999904
0.99999904
0.99999904
0.99999904
0.99999904
0.99999904
0.99999904
0.99999904
0.99999904
0.99999904
0.99999904
0.99999904
0.99999904
0.99999904
0.99999904
0.99999904
0.99999904
0.99999904
0.99999904
0.99999904
0.99999904
0.99999904
0.99999904
0.99999904
0.99999904
0.99999904
0.99999904
0.99999904
0.99999904
0.99999904
0.99999904
0.99999904
0.99999904
0.99999904
0.99999904
0.99999904
0.99999904
0.99999904
0.99999904
0.99999904
0.99999904
0.99999904
0.99999904
0.99999904
0.99999904
0.99999904
0.99999904
0.99999904
0.99999904
0.99999904
0.99999904
0.99999904
0.99999904
0.99999904
0.99999904
0.99999904
0.99999904
0.99999904
0.99999904
0.99999904
0.99999904
0.99999904
0.99999904
0.99999904
0.99999904
0.99999904
0.99999904
0.99999904
0.99999904
0.99999904
0.99999904
0.99999904
0.99999904
0.99999904
0.99999904
0.99999904
0.99999904
0.99999904
0.99999904
0.99999904
0.99999904
0.99999904
0.99999904
0.99999904
0.99999904
0.99999904
0.99999904
)
;

boundaryField
{
    Side
    {
        type            empty;
    }
    Inlet
    {
        type            calculated;
        value           nonuniform List<scalar> 
15
(
0.99999904
0.99999904
0.99999904
0.99999904
0.99999904
0.99999904
0.99999904
0.99999904
0.99999904
0.99999904
0.99999904
0.99999904
0.99999904
0.99999904
0.99999904
)
;
    }
    Airfoil
    {
        type            calculated;
        value           nonuniform List<scalar> 0();
    }
    Outlet
    {
        type            calculated;
        value           nonuniform List<scalar> 0();
    }
    Flap
    {
        type            calculated;
        value           nonuniform List<scalar> 
32
(
0.80470214
0.78724242
0.7719221
0.75652545
0.74267785
0.72951092
0.71724229
0.70543122
0.6939991
0.68341874
0.67249367
0.66204394
0.65082206
0.63988857
0.90239584
0.88990018
0.8784582
0.86706865
0.85612322
0.84617679
0.83675429
0.82746031
0.81873368
0.63031882
0.62220563
1.2734506
1.2330689
1.2012142
1.1756228
1.1555239
1.1400079
1.1289322
)
;
    }
    procBoundary3to2
    {
        type            processor;
        value           nonuniform List<scalar> 
113
(
0.99999904
0.99999904
0.94716606
0.94716606
0.95406921
0.95925051
0.96541001
0.97099252
0.97603115
0.98031812
0.98374216
0.9861988
0.98771283
0.98836884
0.98819238
0.98696565
0.97835133
0.97835133
1.0136274
0.98130705
0.99696758
1.0136274
0.977758
0.97820844
0.98201622
0.98510566
0.98968562
0.99233228
0.98900341
0.9789191
0.96497069
0.95176224
0.94251305
0.93516339
0.94114844
0.93017753
0.93017753
0.99999904
0.99999904
0.99999904
0.99999904
0.99999904
0.99999904
0.99999904
0.99999904
0.99999904
0.99999904
0.99999904
0.99999904
0.99999904
0.99999904
0.99999902
0.99999902
0.99999851
0.99999851
0.9999569
0.9999569
0.99954328
0.99954328
0.99696758
0.99999904
0.99999904
0.99999904
0.99999904
0.99999904
0.99999904
0.99999904
0.99999904
0.99999904
0.99999904
0.99999904
0.99999904
0.99999904
0.99999904
0.99999904
1.0804414
1.0018438
1.0005697
1.0000037
0.99999925
0.99999904
0.99999904
0.99999904
0.99999904
0.99999904
0.99999904
0.99999904
0.99999904
0.99999904
0.99999904
0.99999904
0.99999904
0.99999904
0.99999904
0.99999904
0.99999904
0.99999904
0.99999904
0.99999904
0.99999904
0.99999904
0.99999904
0.99999904
0.99999904
0.99999904
0.99999904
0.99999904
0.99999904
0.99999904
0.99999904
0.99999904
0.99999904
0.99999904
)
;
    }
    procBoundary3to4
    {
        type            processor;
        value           nonuniform List<scalar> 
142
(
0.99999904
0.99999904
0.99999904
0.99999904
0.99999904
0.99999904
0.99999904
0.99999904
0.99999904
0.99999903
0.99999898
0.99999871
0.99999707
0.99999023
0.99996157
0.99984962
0.99931172
0.99999904
0.99999904
0.99999904
0.99999904
0.99999904
0.99999904
0.99999904
0.99999904
0.99999904
0.99999904
0.99999904
0.99999904
0.99999904
0.99999904
0.99999904
0.99999904
0.99999904
0.99999904
0.99999904
0.99999904
0.99999904
0.99999904
0.99999904
0.99999904
0.99999904
0.99999904
0.99999904
0.99999904
0.99999904
0.99999904
0.99999904
0.99999904
0.99999904
0.99999904
0.99999904
0.99999904
0.99999904
0.99999904
0.99999904
0.99999904
0.99999904
0.99999904
0.99999904
0.99999904
0.99999904
0.99999904
0.98219383
0.95221987
0.9157539
0.87539213
0.83460292
0.79431751
0.75867047
0.72810389
0.70515654
0.6811136
0.69877329
0.73277161
0.72714473
0.66921455
0.99883609
1.0057177
1.0067888
1.0030165
1.0030165
1.0007431
0.99931172
0.99999904
0.99999904
0.99999904
0.99999904
0.99999904
0.99999904
0.99999904
0.99999904
0.99999904
0.99999904
0.99999904
0.99999904
0.99999904
0.99999904
0.99999904
0.99999904
0.99999904
0.99999904
0.99999904
0.99999904
0.99999904
0.99999904
0.99999904
0.99999904
0.99999904
0.99999904
1.2194195
1.005854
1.0036156
1.0000236
1.0000016
0.99999906
0.99999904
0.99999904
0.99999904
0.99999904
0.99999904
0.99999904
0.99999904
0.99999904
0.99999904
0.99999904
0.99999904
0.99999904
0.99999904
0.99999904
0.99999904
0.99999904
0.99999904
0.99999904
0.99999904
0.99999904
0.99999904
0.99999904
0.99999904
0.99999904
0.99999904
0.99999904
)
;
    }
}


// ************************************************************************* //
