/*--------------------------------*- C++ -*----------------------------------*\
| =========                 |                                                 |
| \\      /  F ield         | OpenFOAM: The Open Source CFD Toolbox           |
|  \\    /   O peration     | Version:  2206                                  |
|   \\  /    A nd           | Website:  www.openfoam.com                      |
|    \\/     M anipulation  |                                                 |
\*---------------------------------------------------------------------------*/
FoamFile
{
    version     2.0;
    format      ascii;
    arch        "LSB;label=32;scalar=64";
    class       volScalarField;
    location    "0.02";
    object      T;
}
// * * * * * * * * * * * * * * * * * * * * * * * * * * * * * * * * * * * * * //

dimensions      [0 0 0 1 0 0 0];

internalField   nonuniform List<scalar> 
1396
(
1.007336
1.0048805
0.99954818
0.99685375
0.99683025
0.99757766
0.99863654
0.99941184
0.99980967
0.9999595
0.99999075
1.0031399
1.0028382
1.0001142
0.99768092
0.99698957
0.9975726
0.99863117
0.99942165
0.99982435
0.99995953
0.99998865
1.0017712
1.0015536
0.99986953
0.99798446
0.99713407
0.99759869
0.99863623
0.99942872
0.99983151
0.99995503
0.99998284
1.0000518
1.0008115
0.99984829
0.99822022
0.99729045
0.99767918
0.99866495
0.99944245
0.99983691
0.99994478
0.9999705
0.99957262
1.0006279
0.99986902
0.99845241
0.99747922
0.99778052
0.99869741
0.99945189
0.99983162
0.99992382
0.99994724
1.0000293
1.001204
1.0001643
0.99866373
0.99764691
0.99787476
0.99873079
0.99945819
0.99981416
0.99988423
0.99990333
1.0013813
1.0023544
1.000632
0.99881116
0.99776449
0.99795208
0.99875949
0.99945439
0.99977876
0.999819
0.99982276
1.0033825
1.003807
1.0011772
0.99889172
0.99783126
0.99800769
0.99877845
0.99943396
0.99969329
0.99971063
0.99968069
1.0056921
1.0051846
1.0016924
0.99893494
0.99786506
0.99804336
0.99878134
0.99938953
0.99956725
0.99952122
0.99943262
1.008089
1.0063367
1.0020625
0.99896095
0.99788515
0.99806825
0.99876537
0.99931041
0.99937287
0.99922428
0.99902475
1.010487
1.0072963
1.0022141
0.99894889
0.99790577
0.99809061
0.99872754
0.99912022
0.99909499
0.99877686
0.9983884
1.0128604
1.0081673
1.0021783
0.99889528
0.9979182
0.99808917
0.99863638
0.99886104
0.9986433
0.99808442
0.99739541
1.015198
1.0091293
1.0020699
0.99879537
0.99789992
0.99800841
0.99843065
0.99842378
0.99793882
0.99701061
0.99584442
1.0101894
1.0019963
0.99866776
0.99783584
0.9978266
0.99803052
0.99779766
0.99693315
0.99548359
0.99364026
0.99999391
0.99998768
0.99997553
0.99995005
0.99989974
0.99980582
0.99963496
0.99933052
0.9988113
0.99797476
0.9966675
0.99465717
0.99175017
0.98799065
0.99998884
0.99997509
0.99994632
0.9998867
0.99976825
0.9995419
0.99912539
0.99839002
0.99716252
0.99524847
0.9924372
0.98849956
0.98335124
0.97724761
0.99997887
0.99995161
0.99989309
0.99977012
0.9995242
0.99905526
0.99820605
0.99675373
0.99443399
0.99100806
0.98630567
0.98022104
0.97283928
0.964686
0.9999654
0.99991855
0.99981635
0.99959982
0.99916671
0.99834856
0.99689729
0.99449606
0.99082628
0.98568664
0.97905535
0.97103594
0.96190738
0.95248393
0.99995239
0.99988461
0.99973431
0.99941279
0.99876807
0.99755745
0.9954435
0.99203568
0.98700654
0.98025082
0.97194299
0.96242027
0.95217091
0.94222236
0.99994445
0.99986103
0.99967222
0.99926239
0.99843358
0.99687539
0.99417304
0.98988193
0.98368804
0.97559311
0.96595703
0.95534139
0.94444987
0.93438255
0.99994409
0.99985511
0.99964841
0.99919033
0.9982491
0.99646158
0.99334961
0.98842078
0.98136536
0.97226398
0.96162189
0.95019811
0.93888761
0.92877758
0.99995075
0.99986724
0.99966698
0.99921083
0.99825094
0.99639196
0.9931066
0.9878497
0.98028332
0.97051369
0.9591362
0.9470619
0.9353442
0.92505799
0.99996166
0.99989209
0.99971879
0.99931046
0.99842357
0.99665555
0.99344858
0.98819899
0.98049809
0.97040803
0.95854432
0.94590553
0.93367558
0.92297474
0.99997359
0.99992218
0.99978833
0.99946018
0.99871925
0.99718539
0.99429922
0.98940552
0.98198725
0.97198083
0.95992851
0.94682717
0.93394124
0.92252643
0.99998388
0.99995042
0.99985831
0.99962229
0.99906482
0.9978568
0.99547562
0.99124413
0.98452601
0.97506049
0.96320879
0.94986282
0.93626454
0.92388962
0.99999124
0.99997214
0.99991605
0.99976485
0.99938981
0.99853409
0.99675351
0.99340436
0.98776758
0.97935522
0.96823848
0.95507904
0.94095203
0.92750558
0.99999575
0.99998601
0.99995616
0.99986979
0.99964379
0.99909776
0.99788955
0.99546197
0.99108235
0.98407098
0.97415563
0.96164868
0.94737741
0.93299612
0.99999806
0.99999316
0.9999776
0.99993114
0.99980365
0.99948182
0.99873614
0.99715852
0.99413746
0.98896625
0.9811382
0.97068084
0.95823908
0.94463763
0.99999969
0.99999881
0.99999577
0.99998605
0.99995684
0.99987552
0.9996661
0.99916726
0.99807026
0.99585247
0.99177494
0.98508501
0.97589
0.96456335
0.99999998
0.99999989
0.99999952
0.99999811
0.99999308
0.99997637
0.99992513
0.99978019
0.99940031
0.99849617
0.99652503
0.99265021
0.98655442
0.97728015
1
0.99999999
0.99999997
0.99999987
0.99999947
0.99999788
0.99999173
0.99996848
0.99988767
0.99962
0.99887245
0.99706478
0.99369388
0.98705677
1
1
1
0.99999999
0.99999995
0.99999977
0.999999
0.99999569
0.99998208
0.99992543
0.99972582
0.99903919
0.9974423
0.99344277
1
1
1
1
0.99999999
0.99999997
0.99999987
0.99999935
0.99999697
0.99998612
0.99993988
0.99974343
0.99913254
0.9971371
1
1
1
1
1
1
0.99999998
0.9999999
0.99999949
0.99999742
0.99998775
0.99993931
0.99974589
0.99895044
0.98106257
0.96858629
0.95594649
0.94706001
0.94159095
0.93760322
0.93669677
0.9399589
0.95300402
0.96678321
0.95711703
0.93607278
0.93854516
0.95527949
0.96791128
0.95421153
0.94376723
0.93741428
0.93257403
0.92921677
0.9306592
0.93630687
0.95137241
0.96593077
0.94577696
0.91926033
0.92868393
0.95951976
0.95433625
0.94193616
0.93390116
0.92815743
0.92333545
0.92078387
0.92515922
0.93360194
0.94980938
0.96201563
0.93285578
0.90692394
0.9192288
0.96214562
0.94240444
0.93223531
0.9252486
0.91930053
0.91468677
0.91261807
0.91979965
0.93136786
0.94728698
0.95436149
0.91895412
0.90023011
0.91152572
0.96173392
0.93298602
0.9243769
0.91740344
0.91119264
0.90669514
0.9045389
0.91412809
0.93030062
0.94508274
0.94305119
0.90692336
0.89610121
0.90509743
0.95844394
0.92594067
0.91779932
0.91061987
0.90406359
0.89920559
0.89726835
0.90787466
0.92998322
0.94333251
0.93045628
0.89731429
0.89246661
0.89998337
0.95381535
0.92068837
0.91249023
0.90493849
0.89784281
0.89246835
0.89046996
0.90207594
0.92882153
0.94010571
0.92078367
0.88993337
0.88830043
0.89538632
0.94928181
0.91688234
0.90834702
0.90034095
0.89246979
0.88634145
0.8839456
0.89671656
0.92549696
0.93615309
0.91477496
0.88429529
0.88327451
0.89035648
0.94582128
0.91434143
0.90531461
0.8967197
0.88796558
0.88078436
0.87727854
0.8905413
0.92035585
0.93208202
0.91252681
0.88017286
0.87707769
0.88451722
0.94398375
0.91307602
0.90335305
0.89404965
0.88437854
0.87582416
0.87041632
0.88251186
0.91284547
0.92725916
0.91341186
0.87785814
0.86906942
0.87752075
0.94283005
0.91326524
0.90259727
0.89248989
0.88200361
0.87190346
0.86404544
0.87289967
0.90290567
0.9207564
0.91614446
0.87907808
0.86007433
0.86976635
0.94158996
0.9152491
0.9032438
0.89213641
0.88084741
0.86930384
0.85870664
0.86254077
0.89026989
0.91170508
0.91838003
0.88599366
0.85027692
0.86196996
0.93806854
0.9189942
0.9054985
0.89350666
0.88163777
0.86890542
0.85594223
0.85371879
0.87612727
0.89961637
0.91734908
0.89530374
0.84670477
0.85549915
0.93111124
0.92807528
0.90997419
0.89528009
0.88154506
0.86774068
0.85219459
0.84336704
0.8551182
0.88115763
0.90911244
0.90217924
0.84987994
0.85184657
0.91871337
1
1
1
1
1
1
1
1
1
1
1
1
1
1
1
1
1
1
1
1
1
1
1
1
1
1
1
1
1
1
1
1
1
1
1
1
1
1
1
1
1
1
1
1
1
1
1
1
0.99999999
0.99999999
0.99999999
0.99999999
1
1
1
1
1
0.99999967
0.99999975
0.99999958
0.99999933
0.9999991
0.99999897
0.999999
0.99999915
0.99999936
0.99999958
0.99999975
0.99999987
0.99999994
0.99999997
1
1
1
1
1
1
1
1
1
1
1
1
1
1
1
1
1
1
1
1
1
1
1
1
1
1
1
1
1
1
1
1
1
1
1
1
1
1
1
1
1
1
1
1
1
1
1
1
1
1
1
1
1
1
1
1
1
1
1
1
1
1
1
1
1
1
1
1
1
1
1
1
1
1
1
1
1
1
1
1
1
1
1
1
1
1
1
1
1
1
1
0.99999999
0.99999997
0.99999995
0.99999992
0.9999999
1
1
1
1
1
1
0.99999999
0.99999996
0.99999987
0.9999997
0.99999936
0.9999988
0.99999807
0.99999737
1
1
1
0.99999999
0.99999998
0.99999991
0.99999969
0.99999904
0.99999732
0.99999323
0.99998484
0.99997108
0.99995262
0.99993412
1
0.99999999
0.99999993
0.99999966
0.99999878
0.99999626
0.99998968
0.99997446
0.99994414
0.99988828
0.99978512
0.9996199
0.99943166
0.99923978
1
0.99999998
0.9999995
0.99999711
0.9999877
0.9999589
0.99988834
0.99971239
0.99928378
0.99837927
0.99697422
0.99530426
0.99364103
0.99223701
0.99999853
0.99999578
0.99998846
0.9999667
0.9999025
0.99973403
0.99939724
0.99872976
0.99645606
0.99156589
0.98714802
0.98479828
1.0132269
1.0184505
1.0167801
1.0110753
1.0034436
0.99340444
0.9862375
0.9830441
0.98313947
0.98545999
0.98894658
0.99216555
0.98683165
1.0025843
1.0047117
1.0039166
0.99919178
0.99221875
0.98414133
0.97892229
0.97742412
0.97859429
0.98199135
0.98623371
0.990496
0.98341606
0.97765658
0.99842161
0.99824169
0.99622346
0.99151617
0.98447012
0.97742122
0.97341468
0.97263153
0.97452302
0.97882074
0.9835639
0.98844195
0.97951316
0.97324907
0.9974217
0.99620202
0.99288121
0.98678989
0.97884478
0.9721085
0.96877624
0.96822929
0.97086078
0.97603887
0.98114432
0.9858037
0.97513155
0.96902566
0.99722466
0.99510737
0.99027962
0.98255015
0.97374377
0.96736481
0.96441474
0.96401634
0.96757653
0.97372945
0.97901588
0.98225806
0.97030324
0.96531766
0.99703145
0.99353969
0.98698194
0.97775142
0.96862808
0.96282148
0.96011122
0.95995013
0.96462889
0.9719102
0.97709735
0.97777425
0.96525369
0.96246338
0.99610338
0.99108344
0.98279981
0.97246909
0.963589
0.95840422
0.95587912
0.95606716
0.96205633
0.97063638
0.97503844
0.97239408
0.96034176
0.96024788
0.99434437
0.98776831
0.97793044
0.96702299
0.95875558
0.95408418
0.95175056
0.95237227
0.95984594
0.96986178
0.97244717
0.96592632
0.95555597
0.95858775
0.99186385
0.98374934
0.97266685
0.96173967
0.9542397
0.94991441
0.94777721
0.94896606
0.95801264
0.96932321
0.96919642
0.95867816
0.95100172
0.95746731
0.98889916
0.97921827
0.96707223
0.95637033
0.94953633
0.94545669
0.94381049
0.9457123
0.95635246
0.96901414
0.96558949
0.95104919
0.94700861
0.95714041
0.99999999
1
1
1
0.92096732
0.9044073
0.89158373
0.87850538
0.86525976
0.85315502
0.84642267
0.84581879
0.87109393
0.91086275
0.90096113
0.8480644
0.85146977
0.91227452
0.91096823
0.89581703
0.88365928
0.87072177
0.8582976
0.8478223
0.84252161
0.84261715
0.86831101
0.90877562
0.89808578
0.83998709
0.84612209
0.9151762
0.93711261
0.9271772
0.95382126
0.94528153
0.96937421
0.96264598
0.98225534
0.99117483
1
1
1
1
1
1
1
1
1
1
1
1
1
1
1
1
1
1
1
1
1
1
1
1
1
1
1
1
1
1
1
1
1
1
1
1
1
1
0.99999989
1
1
1
1
1
1
1
1
0.99999989
0.99999671
1
1
1
1
1
1
1
1
0.9999999
0.99999698
0.9999198
1
1
1
1
1
1
1
1
0.9999999
0.99999701
0.99992159
0.99905302
1
1
1
1
1
1
1
1
1
1
1
1
1
1
1
1
1
1
1
1
1
1
1
1
1
1
1
1
1
1
1
1
1
1
1
1
1
1
1
1
1
1
1
1
1
1
1
1
1
1
1
1
1
1.0744814
1.0097726
1.002735
1.0001056
1.0000025
1
1
1
1
1
1
1
1
1
1.0655486
1.007643
1.0021033
1.0000715
1.0000016
1
1
1
1
1
1
1
1
1
1.0580652
1.0061097
1.0016589
1.0000506
1.0000011
1
1
1
1
1
1
1
1
1
1.0518643
1.0049762
1.001335
1.000037
1.0000008
1
1
1
1
1
1
1
1
1
1.0468468
1.0041378
1.0010983
1.0000279
1.0000006
1
1
1
1
1
1
1
1
1
1.042955
1.0035157
1.0009247
1.0000218
1.0000005
1
1
1
1
1
1
1
1
1
1.0400704
1.0030797
1.0008011
1.0000176
1.0000004
1
1
1
1
1
1
1
1
1
1
1
1
1
1
1
1
1
1
1
1
1
1
1
1
1
1
1
1
1
1
1
1
1
1
1
1
1
1
1
1
1
1
1
1
1
1
1
1
1
1
1
1
1
1
1
1
1
1
1
1
1
1
1
1
1
1
1
1
1
1
1
1
1
1
1
1
1
1
1
1
1
1
1
1
1
1
1
1
1
1
1
1
1
1
1
1
1
1
1
1
1
1
1
1
1
1
1
1
1
1
1
1
1
1
1
1
1
1
1
1
1
1
1
1
1
1
1
1
1
1
1
1
1
1
1
1
1
1
1
)
;

boundaryField
{
    Side
    {
        type            empty;
    }
    Inlet
    {
        type            inletOutlet;
        inletValue      uniform 1;
        value           nonuniform List<scalar> 
15
(
1
1
1
1
1
1
1
1
1
1
1
1
1
1
1
)
;
    }
    Airfoil
    {
        type            fixedValue;
        value           nonuniform List<scalar> 0();
    }
    Outlet
    {
        type            zeroGradient;
    }
    Flap
    {
        type            fixedValue;
        value           uniform 1;
    }
    procBoundary3to2
    {
        type            processor;
        value           nonuniform List<scalar> 
113
(
1
1
1.0085535
1.0085535
1.0015033
0.99680389
0.99126036
0.98653947
0.98251245
0.97938979
0.97721632
0.97606098
0.97596364
0.9769551
0.97896701
0.98167837
1.0175667
1.0175667
0.98077573
0.9698674
0.99144235
0.98077573
1.0212549
1.02598
1.0242694
1.0229294
1.0172605
1.0061254
0.996293
0.98990906
0.98814659
0.98913105
0.99154695
0.99364235
0.99009287
0.98241235
0.98241235
1
1
1
1
1
1
1
1
1
1
1
1
1
1
0.99999989
0.99999989
0.99999663
0.99999663
0.99991316
0.99991316
0.99896064
0.99896064
0.99144235
1
1
1
1
1
1
1
1
1
1
1
1
1
1
1
1.0374426
1.0028592
1.0007175
1.0000152
1.0000003
1
1
1
1
1
1
1
1
1
1
1
1
1
1
1
1
1
1
1
1
1
1
1
1
1
1
1
1
1
1
1
1
1
)
;
    }
    procBoundary3to4
    {
        type            processor;
        value           nonuniform List<scalar> 
142
(
1
1
1
1
1
1
1
1
1
0.99999999
0.99999992
0.99999954
0.9999974
0.99998742
0.9999323
0.99969244
0.99625242
1
1
1
1
1
1
1
1
1
1
1
1
1
1
1
1
1
1
1
1
1
1
1
1
1
1
1
1
1
1
1
1
1
1
1
1
1
1
1
1
1
1
1
1
1
1
0.90223166
0.88822052
0.8762725
0.86337682
0.85153507
0.84154781
0.83749877
0.84181985
0.87026935
0.90672359
0.88967755
0.8297064
0.83953855
0.91964704
0.91730057
0.9345368
0.95257418
0.97740896
0.97740896
0.98814434
0.99625242
1
1
1
1
1
1
1
1
1
1
1
1
1
1
1
1
1
1
1
1
1
1
1
1
1
1
1.0848883
1.012703
1.0036429
1.0001626
1.0000041
1
1
1
1
1
1
1
1
1
1
1
1
1
1
1
1
1
1
1
1
1
1
1
1
1
1
1
)
;
    }
}


// ************************************************************************* //
