/*--------------------------------*- C++ -*----------------------------------*\
| =========                 |                                                 |
| \\      /  F ield         | OpenFOAM: The Open Source CFD Toolbox           |
|  \\    /   O peration     | Version:  2206                                  |
|   \\  /    A nd           | Website:  www.openfoam.com                      |
|    \\/     M anipulation  |                                                 |
\*---------------------------------------------------------------------------*/
FoamFile
{
    version     2.0;
    format      ascii;
    arch        "LSB;label=32;scalar=64";
    class       volScalarField;
    location    "0.02";
    object      alphat;
}
// * * * * * * * * * * * * * * * * * * * * * * * * * * * * * * * * * * * * * //

dimensions      [1 -1 -1 0 0 0 0];

internalField   nonuniform List<scalar> 
1396
(
2.777179e-08
2.7771771e-08
2.7771752e-08
2.7771731e-08
2.777171e-08
2.7771687e-08
2.7771664e-08
2.7771638e-08
2.7771605e-08
2.7771576e-08
2.7771544e-08
2.777151e-08
2.7771475e-08
2.777144e-08
2.7771902e-08
2.7771891e-08
2.7771878e-08
2.7771865e-08
2.7771852e-08
2.7771838e-08
2.7771823e-08
2.7771803e-08
2.7771786e-08
2.7771769e-08
2.777175e-08
2.7771731e-08
2.7771711e-08
2.7771691e-08
2.7771988e-08
2.7771981e-08
2.7771973e-08
2.7771965e-08
2.7771954e-08
2.7771946e-08
2.7771936e-08
2.7771927e-08
2.7771917e-08
2.7771907e-08
2.7771897e-08
2.7771887e-08
2.7771876e-08
2.7771867e-08
2.7772056e-08
2.7772052e-08
2.7772047e-08
2.7772042e-08
2.7772037e-08
2.7772032e-08
2.7772028e-08
2.7772023e-08
2.7772018e-08
2.7772012e-08
2.7772007e-08
2.7772002e-08
2.7771997e-08
2.7771992e-08
2.777211e-08
2.7772108e-08
2.7772105e-08
2.7772103e-08
2.77721e-08
2.7772097e-08
2.7772095e-08
2.7772092e-08
2.7772089e-08
2.7772087e-08
2.7772084e-08
2.7772081e-08
2.7772079e-08
2.7772076e-08
2.7772151e-08
2.777215e-08
2.7772148e-08
2.7772147e-08
2.7772145e-08
2.7772144e-08
2.7772142e-08
2.7772141e-08
2.7772139e-08
2.7772138e-08
2.7772137e-08
2.7772135e-08
2.7772134e-08
2.7772132e-08
2.7772181e-08
2.7772181e-08
2.777218e-08
2.7772179e-08
2.7772178e-08
2.7772177e-08
2.7772176e-08
2.7772175e-08
2.7772175e-08
2.7772174e-08
2.7772173e-08
2.7772172e-08
2.7772171e-08
2.7772171e-08
2.7772204e-08
2.7772203e-08
2.7772203e-08
2.7772202e-08
2.7772202e-08
2.7772201e-08
2.7772201e-08
2.77722e-08
2.7772199e-08
2.7772199e-08
2.7772198e-08
2.7772198e-08
2.7772198e-08
2.7772197e-08
2.777225e-08
2.777225e-08
2.7772251e-08
2.7772251e-08
2.7772252e-08
2.7772252e-08
2.7772253e-08
2.7772254e-08
2.7772254e-08
2.7772243e-08
2.7772244e-08
2.7772245e-08
2.7772246e-08
2.7772246e-08
2.7772247e-08
2.7772247e-08
2.7772236e-08
2.7772237e-08
2.7772238e-08
2.7772238e-08
2.7772239e-08
2.7772227e-08
2.7772228e-08
2.7772229e-08
2.7772214e-08
2.7772216e-08
2.77722e-08
2.7772217e-08
2.777223e-08
2.777224e-08
2.7772248e-08
2.7772254e-08
2.7772201e-08
2.7772218e-08
2.7772231e-08
2.777224e-08
2.7772249e-08
2.7772255e-08
2.7772202e-08
2.7772219e-08
2.7772231e-08
2.7772241e-08
2.7772249e-08
2.7772255e-08
2.7772204e-08
2.777222e-08
2.7772232e-08
2.7772241e-08
2.7772249e-08
2.7772255e-08
2.7772205e-08
2.7772221e-08
2.7772233e-08
2.7772242e-08
2.777225e-08
2.7772256e-08
2.7772185e-08
2.7772206e-08
2.7772222e-08
2.7772233e-08
2.7772243e-08
2.777225e-08
2.7772256e-08
2.7772187e-08
2.7772207e-08
2.7772222e-08
2.7772234e-08
2.7772243e-08
2.777225e-08
2.7772256e-08
2.7772189e-08
2.7772209e-08
2.7772223e-08
2.7772235e-08
2.7772243e-08
2.777225e-08
2.7772256e-08
2.7772191e-08
2.777221e-08
2.7772224e-08
2.7772235e-08
2.7772244e-08
2.7772251e-08
2.7772257e-08
2.7772167e-08
2.7772192e-08
2.7772211e-08
2.7772225e-08
2.7772236e-08
2.7772244e-08
2.7772251e-08
2.7772257e-08
2.7772169e-08
2.7772194e-08
2.7772212e-08
2.7772226e-08
2.7772236e-08
2.7772245e-08
2.7772252e-08
2.7772257e-08
2.7772172e-08
2.7772195e-08
2.7772213e-08
2.7772227e-08
2.7772237e-08
2.7772245e-08
2.7772252e-08
2.7772257e-08
2.7772174e-08
2.7772197e-08
2.7772214e-08
2.7772227e-08
2.7772238e-08
2.7772246e-08
2.7772252e-08
2.7772258e-08
2.7772177e-08
2.7772199e-08
2.7772215e-08
2.7772228e-08
2.7772238e-08
2.7772246e-08
2.7772253e-08
2.7772258e-08
2.7771887e-08
2.7771971e-08
2.7772033e-08
2.7772085e-08
2.7772128e-08
2.7772162e-08
2.7772188e-08
2.7772208e-08
2.7772007e-08
2.7772055e-08
2.7772093e-08
2.7772128e-08
2.7772156e-08
2.7772181e-08
2.77722e-08
2.7772216e-08
2.7772045e-08
2.777208e-08
2.777211e-08
2.7772134e-08
2.7772158e-08
2.7772178e-08
2.7772196e-08
2.777221e-08
2.7772223e-08
2.7772079e-08
2.7772106e-08
2.7772128e-08
2.7772149e-08
2.7772166e-08
2.7772181e-08
2.7772196e-08
2.7772209e-08
2.777222e-08
2.7772229e-08
2.777213e-08
2.7772147e-08
2.7772162e-08
2.7772176e-08
2.7772187e-08
2.7772199e-08
2.7772209e-08
2.7772219e-08
2.7772228e-08
2.7772153e-08
2.7772165e-08
2.7772176e-08
2.7772186e-08
2.7772196e-08
2.7772204e-08
2.7772213e-08
2.7772221e-08
2.7772228e-08
2.7772235e-08
2.7772182e-08
2.777219e-08
2.7772198e-08
2.7772205e-08
2.7772212e-08
2.7772217e-08
2.7772224e-08
2.777223e-08
2.7772235e-08
2.777224e-08
2.7772203e-08
2.7772208e-08
2.7772214e-08
2.7772219e-08
2.7772224e-08
2.7772228e-08
2.7772233e-08
2.7772238e-08
2.7772242e-08
2.7772246e-08
2.7772218e-08
2.7772222e-08
2.7772226e-08
2.777223e-08
2.7772233e-08
2.7772237e-08
2.777224e-08
2.7772244e-08
2.7772247e-08
2.777223e-08
2.7772234e-08
2.7772236e-08
2.7772239e-08
2.7772241e-08
2.7772244e-08
2.7772246e-08
2.7772249e-08
2.7772251e-08
2.777224e-08
2.7772242e-08
2.7772244e-08
2.7772246e-08
2.7772248e-08
2.777225e-08
2.7772252e-08
2.7772254e-08
2.7772256e-08
2.7772247e-08
2.7772249e-08
2.777225e-08
2.7772252e-08
2.7772253e-08
2.7772255e-08
2.7772256e-08
2.7772258e-08
2.7772254e-08
2.7772254e-08
2.7772255e-08
2.7772256e-08
2.7772258e-08
2.7772259e-08
2.777226e-08
2.7772261e-08
2.7772258e-08
2.7772259e-08
2.777226e-08
2.7772261e-08
2.7772261e-08
2.7772262e-08
2.7772263e-08
2.7731361e-08
2.7769554e-08
2.7769415e-08
2.7769292e-08
2.7769122e-08
2.7768883e-08
2.7770869e-08
2.7770864e-08
2.7770833e-08
2.7770823e-08
2.7770839e-08
2.7770864e-08
2.7770913e-08
2.7770981e-08
2.7771058e-08
2.7771139e-08
2.7771405e-08
2.7771395e-08
2.7771379e-08
2.7771372e-08
2.777136e-08
2.7771365e-08
2.7771374e-08
2.7771393e-08
2.7771421e-08
2.7771455e-08
2.7771496e-08
2.7771541e-08
2.7771589e-08
2.7771636e-08
2.7771675e-08
2.7771669e-08
2.7771669e-08
2.7771674e-08
2.777168e-08
2.7771692e-08
2.7771707e-08
2.7771725e-08
2.7771746e-08
2.7771769e-08
2.7771793e-08
2.7771818e-08
2.7771843e-08
2.7771868e-08
2.777186e-08
2.7771864e-08
2.7771869e-08
2.7771876e-08
2.7771884e-08
2.7771894e-08
2.7771905e-08
2.7771916e-08
2.7771929e-08
2.7771942e-08
2.7771956e-08
2.7771969e-08
2.7771983e-08
2.7771996e-08
2.777199e-08
2.7771994e-08
2.7771999e-08
2.7772004e-08
2.7772009e-08
2.7772016e-08
2.7772022e-08
2.7772029e-08
2.7772037e-08
2.7772044e-08
2.7772052e-08
2.777206e-08
2.7772067e-08
2.7772075e-08
2.7772076e-08
2.7772078e-08
2.7772081e-08
2.7772085e-08
2.7772088e-08
2.7772092e-08
2.7772096e-08
2.77721e-08
2.7772104e-08
2.7772109e-08
2.7772113e-08
2.7772117e-08
2.7772122e-08
2.7772126e-08
2.7772132e-08
2.7772134e-08
2.7772136e-08
2.7772138e-08
2.777214e-08
2.7772142e-08
2.7772144e-08
2.7772146e-08
2.7772149e-08
2.7772151e-08
2.7772154e-08
2.7772156e-08
2.7772159e-08
2.7772162e-08
2.777217e-08
2.7772171e-08
2.7772172e-08
2.7772173e-08
2.7772175e-08
2.7772176e-08
2.7772177e-08
2.7772178e-08
2.777218e-08
2.7772181e-08
2.7772182e-08
2.7772184e-08
2.7772185e-08
2.7772187e-08
2.7772197e-08
2.7772197e-08
2.7772198e-08
2.7772198e-08
2.7772199e-08
2.77722e-08
2.77722e-08
2.7772201e-08
2.7772202e-08
2.7772202e-08
1.7967163e-08
1.6976841e-08
1.7430791e-08
1.9503875e-08
1.8162516e-08
2.2758863e-08
2.3814819e-08
2.5546715e-08
2.8182818e-08
2.6525763e-08
2.8301522e-08
3.1859723e-08
2.6676589e-08
2.7024498e-08
2.782131e-08
2.7388591e-08
2.7397788e-08
2.7188225e-08
2.3395031e-08
2.6380081e-08
2.7470961e-08
2.7723876e-08
2.2442003e-08
2.5986289e-08
2.7576678e-08
2.7932922e-08
2.173085e-08
2.5633285e-08
2.7572917e-08
2.8054676e-08
2.5301372e-08
2.7685276e-08
2.8242749e-08
2.501088e-08
2.7722068e-08
2.8388379e-08
2.4731091e-08
2.7809859e-08
2.8558435e-08
2.4538296e-08
2.7861469e-08
2.8695292e-08
2.4492717e-08
2.7953223e-08
2.8816424e-08
2.4514533e-08
2.8037968e-08
2.8901568e-08
2.4616313e-08
2.8138601e-08
2.8959179e-08
2.478484e-08
2.8256887e-08
2.9000106e-08
2.503304e-08
2.8409495e-08
2.9044878e-08
2.5403532e-08
2.8637672e-08
2.9133173e-08
2.5881296e-08
2.8882067e-08
2.9238458e-08
2.7737219e-08
2.7661455e-08
2.749653e-08
2.718963e-08
2.6739527e-08
2.6211328e-08
2.5779492e-08
2.5592791e-08
2.5737173e-08
2.6191348e-08
2.6734798e-08
2.7131845e-08
2.7392758e-08
2.7624675e-08
2.7769248e-08
2.7766598e-08
2.7760206e-08
2.774642e-08
2.7722213e-08
2.7687276e-08
2.7649558e-08
2.7620825e-08
2.7613033e-08
2.7628279e-08
2.7666442e-08
2.7714897e-08
2.7745602e-08
2.7760521e-08
2.77712e-08
2.7771118e-08
2.7770934e-08
2.7770515e-08
2.7769717e-08
2.7768452e-08
2.7766941e-08
2.7765619e-08
2.7765036e-08
2.7765459e-08
2.7766226e-08
2.776832e-08
2.7770786e-08
2.7771379e-08
2.7771663e-08
2.7771659e-08
2.7771655e-08
2.7771645e-08
2.7771625e-08
2.777159e-08
2.7771545e-08
2.7771503e-08
2.7771483e-08
2.7771498e-08
2.7771523e-08
2.7771553e-08
2.7771674e-08
2.7771747e-08
2.7771882e-08
2.7771881e-08
2.7771882e-08
2.7771883e-08
2.7771884e-08
2.7771884e-08
2.7771885e-08
2.7771886e-08
2.7771888e-08
2.7771891e-08
2.7771894e-08
2.7771898e-08
2.7771904e-08
2.7771911e-08
2.7772004e-08
2.7772004e-08
2.7772005e-08
2.7772005e-08
2.7772006e-08
2.7772007e-08
2.7772008e-08
2.7772009e-08
2.7772011e-08
2.7772012e-08
2.7772014e-08
2.7772016e-08
2.7772018e-08
2.777202e-08
2.7772079e-08
2.7772079e-08
2.777208e-08
2.777208e-08
2.7772081e-08
2.7772081e-08
2.7772082e-08
2.7772083e-08
2.7772083e-08
2.7772084e-08
2.7772085e-08
2.7772086e-08
2.7772087e-08
2.7772088e-08
2.7772129e-08
2.7772129e-08
2.7772129e-08
2.7772129e-08
2.777213e-08
2.777213e-08
2.777213e-08
2.7772131e-08
2.7772131e-08
2.7772132e-08
2.7772132e-08
2.7772133e-08
2.7772133e-08
2.7772134e-08
2.7772163e-08
2.7772163e-08
2.7772163e-08
2.7772163e-08
2.7772164e-08
2.7772164e-08
2.7772164e-08
2.7772164e-08
2.7772165e-08
2.7772165e-08
2.7772165e-08
2.7772165e-08
2.7772166e-08
2.7772166e-08
2.7772188e-08
2.7772188e-08
2.7772188e-08
2.7772188e-08
2.7772188e-08
2.7772188e-08
2.7772188e-08
2.7772188e-08
2.7772188e-08
2.7772189e-08
2.7772189e-08
2.7772189e-08
2.7772189e-08
2.7772189e-08
2.7772191e-08
2.7772168e-08
2.7772137e-08
2.7772092e-08
2.7772026e-08
2.7771922e-08
2.7771752e-08
2.7771887e-08
2.7786173e-08
2.8044032e-08
2.777219e-08
2.7772168e-08
2.7772136e-08
2.7772092e-08
2.7772026e-08
2.7771921e-08
2.7771751e-08
2.777185e-08
2.7785798e-08
2.8035353e-08
2.777219e-08
2.7772168e-08
2.7772136e-08
2.7772092e-08
2.7772025e-08
2.777192e-08
2.7771749e-08
2.7771829e-08
2.7785131e-08
2.802745e-08
2.777219e-08
2.7772168e-08
2.7772136e-08
2.7772091e-08
2.7772025e-08
2.777192e-08
2.7771747e-08
2.7771796e-08
2.7784164e-08
2.8015395e-08
2.777219e-08
2.7772167e-08
2.7772136e-08
2.7772091e-08
2.7772025e-08
2.7771919e-08
2.7771745e-08
2.777175e-08
2.7782868e-08
2.7997104e-08
2.777219e-08
2.7772167e-08
2.7772136e-08
2.7772091e-08
2.7772024e-08
2.7771918e-08
2.7771742e-08
2.77717e-08
2.7781402e-08
2.7974376e-08
2.777219e-08
2.7772167e-08
2.7772136e-08
2.7772091e-08
2.7772024e-08
2.7771918e-08
2.777174e-08
2.7771645e-08
2.7779809e-08
2.7947456e-08
2.777219e-08
2.7772167e-08
2.7772135e-08
2.7772091e-08
2.7772024e-08
2.7771917e-08
2.7771737e-08
2.7771587e-08
2.7778153e-08
2.7917792e-08
2.777219e-08
2.7772167e-08
2.7772135e-08
2.777209e-08
2.7772023e-08
2.7771917e-08
2.7771736e-08
2.7771529e-08
2.777645e-08
2.7887113e-08
2.777219e-08
2.7772167e-08
2.7772135e-08
2.777209e-08
2.7772023e-08
2.7771916e-08
2.7771733e-08
2.7771492e-08
2.7774729e-08
2.7855111e-08
2.777219e-08
2.7772167e-08
2.7772135e-08
2.777209e-08
2.7772023e-08
2.7771915e-08
2.7771728e-08
2.7771438e-08
2.77731e-08
2.7823883e-08
2.777219e-08
2.7772167e-08
2.7772135e-08
2.777209e-08
2.7772023e-08
2.7771915e-08
2.7771727e-08
2.7771382e-08
2.7772058e-08
2.7789564e-08
2.777219e-08
2.7772167e-08
2.7772135e-08
2.777209e-08
2.7772022e-08
2.7771915e-08
2.7771728e-08
2.7771289e-08
2.7769965e-08
2.7760202e-08
2.777219e-08
2.7772167e-08
2.7772135e-08
2.777209e-08
2.7772022e-08
2.7771915e-08
2.7771731e-08
2.7771299e-08
2.7767684e-08
2.7726256e-08
2.7771811e-08
2.7771893e-08
2.7771956e-08
2.7772005e-08
2.7772044e-08
2.7769431e-08
2.7771498e-08
2.7771563e-08
2.7771713e-08
2.7771819e-08
2.7771899e-08
2.777196e-08
2.7772008e-08
2.7772046e-08
2.8714727e-08
2.7635799e-08
2.7789045e-08
2.7769804e-08
2.7771487e-08
2.7771582e-08
2.7771726e-08
2.7771828e-08
2.7771905e-08
2.7771965e-08
2.7772012e-08
2.7772049e-08
3.4593077e-08
2.6019564e-08
2.8441386e-08
2.7669293e-08
2.7783321e-08
2.7770201e-08
2.7771485e-08
2.7771603e-08
2.777174e-08
2.7771838e-08
2.7771912e-08
2.777197e-08
2.7772015e-08
2.7772052e-08
3.3112693e-08
2.6397509e-08
2.8227377e-08
2.7698971e-08
2.7778978e-08
2.7770569e-08
2.7771492e-08
2.7771625e-08
2.7771753e-08
2.7771847e-08
2.7771918e-08
2.7771974e-08
2.7772019e-08
2.7772054e-08
3.182496e-08
2.6649787e-08
2.808813e-08
2.7722372e-08
2.7775988e-08
2.7770851e-08
2.7771504e-08
2.7771645e-08
2.7771767e-08
2.7771857e-08
2.7771926e-08
2.777198e-08
2.7772023e-08
2.7772058e-08
2.9895433e-08
2.7087459e-08
2.793784e-08
2.7746683e-08
2.7773506e-08
2.7771102e-08
2.7771524e-08
2.7771667e-08
2.7771781e-08
2.7771867e-08
2.7771933e-08
2.7771985e-08
2.7772027e-08
2.777206e-08
2.8038673e-08
2.7675822e-08
2.7789738e-08
2.7768489e-08
2.7771483e-08
2.7771429e-08
2.7771618e-08
2.7771741e-08
2.7771835e-08
2.7771907e-08
2.7771964e-08
2.777201e-08
2.7772046e-08
2.7772075e-08
2.7784903e-08
2.7764762e-08
2.7772459e-08
2.7771304e-08
2.7771552e-08
2.7771679e-08
2.7771779e-08
2.7771858e-08
2.7771922e-08
2.7771974e-08
2.7772016e-08
2.7772051e-08
2.7772079e-08
2.7772103e-08
2.777178e-08
2.7771613e-08
2.7771566e-08
2.7771707e-08
2.7771775e-08
2.7771845e-08
2.7771904e-08
2.7771954e-08
2.7771996e-08
2.7772032e-08
2.7772062e-08
2.7772088e-08
2.777211e-08
2.7772128e-08
2.7771759e-08
2.7771818e-08
2.7771826e-08
2.7771881e-08
2.7771921e-08
2.777196e-08
2.7771995e-08
2.7772027e-08
2.7772055e-08
2.777208e-08
2.7772101e-08
2.777212e-08
2.7772137e-08
2.7772151e-08
2.7771929e-08
2.7771948e-08
2.777197e-08
2.7771993e-08
2.7772016e-08
2.7772039e-08
2.7772061e-08
2.7772082e-08
2.7772101e-08
2.7772118e-08
2.7772133e-08
2.7772147e-08
2.777216e-08
2.7772171e-08
2.777203e-08
2.777204e-08
2.7772053e-08
2.7772066e-08
2.7772081e-08
2.7772095e-08
2.7772109e-08
2.7772123e-08
2.7772136e-08
2.7772148e-08
2.7772159e-08
2.777217e-08
2.7772179e-08
2.7772187e-08
2.7772094e-08
2.7772101e-08
2.7772108e-08
2.7772117e-08
2.7772126e-08
2.7772135e-08
2.7772145e-08
2.7772154e-08
2.7772163e-08
2.7772172e-08
2.777218e-08
2.7772188e-08
2.7772195e-08
2.7772202e-08
2.7772138e-08
2.7772142e-08
2.7772147e-08
2.7772152e-08
2.7772158e-08
2.7772165e-08
2.7772171e-08
2.7772178e-08
2.7772184e-08
2.7772191e-08
2.7772197e-08
2.7772203e-08
2.7772208e-08
2.7772213e-08
2.7772169e-08
2.7772171e-08
2.7772175e-08
2.7772178e-08
2.7772182e-08
2.7772187e-08
2.7772192e-08
2.7772196e-08
2.7772201e-08
2.7772206e-08
2.7772211e-08
2.7772215e-08
2.7772219e-08
2.7772223e-08
2.7772191e-08
2.7772193e-08
2.7772195e-08
2.7772198e-08
2.7772201e-08
2.7772204e-08
2.7772207e-08
2.7772211e-08
2.7772214e-08
2.7772218e-08
2.7772222e-08
2.7772225e-08
2.7772228e-08
2.7772232e-08
2.7772294e-08
2.7772294e-08
2.7772295e-08
2.7772295e-08
2.7772295e-08
2.7772295e-08
2.7772295e-08
2.7772295e-08
2.7772295e-08
2.7772295e-08
2.7772293e-08
2.7772294e-08
2.7772294e-08
2.7772295e-08
2.7772295e-08
2.7772295e-08
2.7772295e-08
2.7772295e-08
2.7772295e-08
2.7772295e-08
2.7772295e-08
2.7772291e-08
2.7772293e-08
2.7772294e-08
2.7772294e-08
2.7772295e-08
2.7772295e-08
2.7772295e-08
2.7772295e-08
2.7772295e-08
2.7772295e-08
2.7772295e-08
2.7772295e-08
2.7772285e-08
2.7772291e-08
2.7772293e-08
2.7772294e-08
2.7772294e-08
2.7772295e-08
2.7772295e-08
2.7772295e-08
2.7772295e-08
2.7772295e-08
2.7772295e-08
2.7772295e-08
2.7772295e-08
2.7772285e-08
2.7772291e-08
2.7772293e-08
2.7772294e-08
2.7772294e-08
2.7772295e-08
2.7772295e-08
2.7772295e-08
2.7772295e-08
2.7772295e-08
2.7772295e-08
2.7772295e-08
2.7772295e-08
2.777225e-08
2.7772285e-08
2.7772291e-08
2.7772293e-08
2.7772294e-08
2.7772294e-08
2.7772295e-08
2.7772295e-08
2.7772295e-08
2.7772295e-08
2.7772295e-08
2.7772295e-08
2.7772295e-08
2.7772295e-08
2.7772251e-08
2.7772285e-08
2.7772291e-08
2.7772293e-08
2.7772294e-08
2.7772294e-08
2.7772295e-08
2.7772295e-08
2.7772295e-08
2.7772295e-08
2.7772295e-08
2.7772295e-08
2.7772295e-08
2.7772295e-08
2.7772251e-08
2.7772285e-08
2.7772291e-08
2.7772293e-08
2.7772294e-08
2.7772294e-08
2.7772295e-08
2.7772295e-08
2.7772295e-08
2.7772295e-08
2.7772295e-08
2.7772295e-08
2.7772295e-08
2.7772295e-08
2.7772251e-08
2.7772285e-08
2.7772291e-08
2.7772293e-08
2.7772294e-08
2.7772294e-08
2.7772295e-08
2.7772295e-08
2.7772295e-08
2.7772295e-08
2.7772295e-08
2.7772295e-08
2.7772295e-08
2.7772295e-08
2.7772251e-08
2.7772285e-08
2.7772291e-08
2.7772293e-08
2.7772294e-08
2.7772294e-08
2.7772295e-08
2.7772295e-08
2.7772295e-08
2.7772295e-08
2.7772295e-08
2.7772295e-08
2.7772295e-08
2.7772295e-08
2.7772251e-08
2.7772285e-08
2.7772291e-08
2.7772293e-08
2.7772294e-08
2.7772294e-08
2.7772295e-08
2.7772295e-08
2.7772295e-08
2.7772295e-08
2.7772295e-08
2.7772295e-08
2.7772295e-08
2.7772251e-08
2.7772285e-08
2.7772291e-08
2.7772293e-08
2.7772294e-08
2.7772294e-08
2.7772295e-08
2.7772295e-08
2.7772295e-08
2.7772295e-08
2.7772295e-08
2.7772295e-08
2.7772251e-08
2.7772285e-08
2.7772291e-08
2.7772293e-08
2.7772294e-08
2.7772294e-08
2.7772295e-08
2.7772295e-08
2.7772295e-08
2.7772295e-08
2.7772295e-08
2.7772251e-08
2.7772285e-08
2.7772291e-08
2.7772293e-08
2.7772294e-08
2.7772294e-08
2.7772295e-08
2.7772295e-08
2.7772295e-08
2.7772295e-08
2.7772277e-08
2.7772289e-08
2.7772289e-08
2.7772289e-08
2.7772289e-08
2.7772289e-08
2.7772289e-08
2.7772289e-08
2.7772289e-08
2.7772289e-08
2.7772289e-08
2.7772289e-08
2.7772289e-08
2.7772289e-08
2.7772292e-08
2.7772292e-08
2.7772292e-08
2.7772292e-08
2.7772292e-08
2.7772292e-08
2.7772292e-08
2.7772292e-08
2.7772292e-08
2.7772292e-08
2.7772292e-08
2.7772292e-08
2.7772292e-08
2.7772292e-08
2.7772294e-08
2.7772294e-08
2.7772294e-08
2.7772294e-08
2.7772294e-08
2.7772294e-08
2.7772294e-08
2.7772294e-08
2.7772292e-08
2.7772292e-08
2.7772292e-08
2.7772292e-08
2.7772292e-08
2.7772289e-08
2.7772289e-08
2.7772289e-08
2.7772289e-08
2.7772289e-08
2.7772289e-08
2.7772289e-08
2.7772289e-08
2.7772289e-08
2.7772289e-08
2.7772289e-08
2.7772289e-08
2.7772289e-08
2.7772289e-08
2.7772277e-08
2.7772277e-08
2.7772277e-08
2.7772277e-08
2.7772277e-08
2.7772277e-08
2.7772277e-08
2.7772277e-08
2.7772278e-08
2.7772277e-08
2.7772278e-08
2.7772278e-08
2.7772278e-08
2.7772278e-08
2.7772295e-08
2.7772295e-08
2.7772295e-08
2.7772295e-08
2.7772295e-08
2.7772295e-08
2.7772295e-08
2.7772295e-08
2.7772295e-08
2.7772295e-08
2.7772295e-08
2.7772295e-08
2.7772295e-08
2.7772295e-08
2.7772295e-08
2.7772295e-08
2.7772295e-08
2.7772295e-08
2.7772295e-08
2.7772295e-08
2.7772295e-08
2.7772295e-08
2.7772295e-08
2.7772295e-08
2.7772295e-08
2.7772294e-08
2.7772295e-08
2.7772295e-08
2.7772294e-08
2.7772293e-08
2.7772295e-08
2.7772294e-08
2.7772293e-08
2.7772295e-08
2.7772294e-08
2.7772294e-08
2.7772292e-08
2.7772294e-08
2.7772294e-08
2.7772292e-08
2.7772294e-08
2.7772292e-08
2.7772266e-08
2.7772264e-08
2.7772262e-08
2.777226e-08
2.7772258e-08
2.7772256e-08
2.7772254e-08
2.7772252e-08
2.7772286e-08
2.7772286e-08
2.7772286e-08
2.7772286e-08
2.7772285e-08
2.7772285e-08
2.7772291e-08
2.7772291e-08
2.7772291e-08
2.7772291e-08
2.7772291e-08
2.7772293e-08
2.7772293e-08
2.7772293e-08
2.7772293e-08
2.7772294e-08
2.7772294e-08
2.7772294e-08
2.7772294e-08
2.7772294e-08
2.7772295e-08
2.7772295e-08
2.7772295e-08
2.7772278e-08
2.7772278e-08
2.7772278e-08
2.7772278e-08
2.7772279e-08
2.7772279e-08
2.7772279e-08
2.7772279e-08
2.7772279e-08
2.7772279e-08
2.7772279e-08
2.7772279e-08
2.7772279e-08
2.7772279e-08
2.7772289e-08
2.7772289e-08
2.7772289e-08
2.7772279e-08
2.7772279e-08
2.777228e-08
2.7772295e-08
2.7772295e-08
2.7772295e-08
2.7772295e-08
2.7772295e-08
2.7772295e-08
2.7772295e-08
2.7772295e-08
2.7772295e-08
2.7772295e-08
)
;

boundaryField
{
    Side
    {
        type            empty;
    }
    Inlet
    {
        type            calculated;
        value           nonuniform List<scalar> 
15
(
3.9592188e-07
3.9592188e-07
3.9592188e-07
3.9592188e-07
3.9592188e-07
3.9592188e-07
3.9592188e-07
3.9592188e-07
3.9592188e-07
3.9592188e-07
2.7772295e-08
2.7772295e-08
2.7772295e-08
3.9592188e-07
3.9592188e-07
)
;
    }
    Airfoil
    {
        type            compressible::alphatWallFunction;
        value           nonuniform List<scalar> 0();
    }
    Outlet
    {
        type            zeroGradient;
    }
    Flap
    {
        type            compressible::alphatWallFunction;
        value           nonuniform List<scalar> 0();
    }
    procBoundary5to4
    {
        type            processor;
        value           nonuniform List<scalar> 
189
(
2.7771639e-08
2.7771606e-08
2.7771575e-08
2.7771541e-08
2.7771504e-08
2.7771466e-08
2.7771426e-08
2.7771382e-08
2.7771336e-08
2.7771285e-08
2.7771219e-08
2.7771158e-08
2.7771092e-08
2.7771022e-08
2.7772247e-08
2.7772248e-08
2.7772248e-08
2.7772248e-08
2.7772249e-08
2.7772249e-08
2.7772242e-08
2.7772243e-08
2.7772243e-08
2.7772234e-08
2.7772235e-08
2.7772235e-08
2.7772225e-08
2.7772226e-08
2.7772226e-08
2.7772213e-08
2.7772213e-08
2.7772196e-08
2.7772197e-08
2.7772197e-08
2.7772247e-08
2.7772176e-08
2.7772179e-08
2.7772179e-08
2.7772183e-08
2.7772183e-08
2.7772183e-08
2.7772157e-08
2.7772159e-08
2.7772162e-08
2.7772164e-08
2.7772164e-08
2.7772131e-08
2.7772135e-08
2.7772139e-08
2.7772141e-08
2.7772146e-08
2.7772146e-08
2.7771784e-08
2.7771948e-08
2.7771948e-08
2.7772e-08
2.7772e-08
2.777205e-08
2.7772112e-08
2.7772112e-08
2.7757512e-08
2.7752796e-08
2.7747463e-08
2.7740522e-08
2.7740522e-08
2.7275968e-08
2.7769938e-08
2.7769888e-08
2.7769814e-08
2.7769748e-08
2.7769682e-08
2.7769682e-08
2.7770965e-08
2.7770932e-08
2.777091e-08
2.7770889e-08
2.7770889e-08
2.7346471e-08
2.6424496e-08
2.4828137e-08
2.2504087e-08
1.997336e-08
1.997336e-08
1.377322e-08
1.3172787e-08
1.442779e-08
1.442779e-08
2.0272027e-08
2.91908e-08
3.4876887e-08
3.4876887e-08
3.5097697e-08
2.7206809e-08
2.5580248e-08
2.5580248e-08
1.8012583e-08
1.7044648e-08
1.6503284e-08
2.0781882e-08
2.0781882e-08
2.0508425e-08
2.0000065e-08
1.9856675e-08
1.990591e-08
2.0060957e-08
2.0295561e-08
2.059897e-08
2.1022624e-08
2.1565627e-08
2.2174368e-08
2.2174368e-08
2.7772043e-08
2.7771803e-08
2.7771888e-08
2.7771952e-08
2.7772002e-08
2.7772041e-08
2.7772041e-08
2.776914e-08
2.777152e-08
2.7771545e-08
2.7771701e-08
2.7771701e-08
2.9058862e-08
2.7598901e-08
2.779668e-08
2.779668e-08
3.6344263e-08
2.5616843e-08
2.5616843e-08
2.7772293e-08
2.7772293e-08
2.7772294e-08
2.7772294e-08
2.7772295e-08
2.7772291e-08
2.7772291e-08
2.7772285e-08
2.7772285e-08
2.7772251e-08
2.777225e-08
2.777225e-08
2.7772276e-08
2.7772276e-08
2.7772276e-08
2.7772276e-08
2.7772276e-08
2.7772276e-08
2.7772276e-08
2.7772277e-08
2.7772276e-08
2.7772277e-08
2.7772277e-08
2.7772276e-08
2.7772276e-08
2.7772289e-08
2.7772289e-08
2.7772295e-08
2.7772295e-08
2.7772295e-08
2.7772295e-08
2.7772295e-08
2.7772295e-08
2.7772295e-08
2.7772295e-08
2.7772295e-08
2.7772295e-08
2.7772295e-08
2.7772295e-08
2.7772295e-08
2.7772294e-08
2.7772294e-08
2.7772293e-08
2.7772293e-08
2.7772292e-08
2.7772292e-08
2.7772292e-08
2.7772289e-08
2.7772289e-08
2.7772289e-08
2.7772295e-08
2.7772295e-08
2.7772295e-08
2.7772295e-08
2.7772295e-08
2.7772295e-08
2.7772295e-08
2.7772295e-08
2.7772295e-08
)
;
    }
    procBoundary5to6
    {
        type            processor;
        value           nonuniform List<scalar> 
188
(
2.7772221e-08
2.777222e-08
2.777222e-08
2.777222e-08
2.7772219e-08
2.7772219e-08
2.7772219e-08
2.7772218e-08
2.7772218e-08
2.7772218e-08
2.7772217e-08
2.7772217e-08
2.7772217e-08
2.7772217e-08
2.7772223e-08
2.7772228e-08
2.7772233e-08
2.7772238e-08
2.7772235e-08
2.7772235e-08
2.7772241e-08
2.7772245e-08
2.777225e-08
2.777225e-08
2.777225e-08
2.7772255e-08
2.7772258e-08
2.7772259e-08
2.7772259e-08
2.7772262e-08
2.7772264e-08
2.777228e-08
2.777228e-08
2.777228e-08
2.7772264e-08
2.777228e-08
2.7772203e-08
2.7772204e-08
2.7772205e-08
2.7772206e-08
2.7772216e-08
2.7772217e-08
2.7772217e-08
2.7772217e-08
2.7772217e-08
2.7772217e-08
2.7772218e-08
2.7772218e-08
2.7772218e-08
2.7772203e-08
2.7772219e-08
2.7772206e-08
2.7772206e-08
2.7772206e-08
2.7772206e-08
2.7772206e-08
2.7772206e-08
2.7772207e-08
2.7772207e-08
2.7772207e-08
2.7772207e-08
2.7772207e-08
2.7772207e-08
2.7772207e-08
2.7772207e-08
2.7772208e-08
2.7772208e-08
2.7772208e-08
2.7772208e-08
2.7772208e-08
2.7772208e-08
2.7772208e-08
2.7772208e-08
2.7772208e-08
2.7772208e-08
2.7772208e-08
2.7772207e-08
2.7772207e-08
2.7772207e-08
2.7772268e-08
2.7772208e-08
2.777221e-08
2.7772211e-08
2.7772213e-08
2.7772215e-08
2.7772218e-08
2.777222e-08
2.7772223e-08
2.7772225e-08
2.7772228e-08
2.7772231e-08
2.7772234e-08
2.7772236e-08
2.7772239e-08
2.777227e-08
2.7772295e-08
2.7772295e-08
2.7772295e-08
2.7772295e-08
2.7772295e-08
2.7772295e-08
2.7772295e-08
2.7772295e-08
2.7772295e-08
2.7772294e-08
2.7772294e-08
2.7772294e-08
2.7772294e-08
2.7772294e-08
2.7772294e-08
2.7772294e-08
2.7772294e-08
2.7772294e-08
2.7772294e-08
2.7772294e-08
2.7772294e-08
2.7772294e-08
2.7772294e-08
2.7772294e-08
2.7772294e-08
2.7772294e-08
2.7772294e-08
2.7772294e-08
2.7772294e-08
2.7772292e-08
2.7772292e-08
2.7772292e-08
2.7772292e-08
2.7772292e-08
2.7772292e-08
2.7772292e-08
2.7772292e-08
2.7772292e-08
2.7772292e-08
2.7772295e-08
2.7772295e-08
2.7772295e-08
2.7772295e-08
2.7772295e-08
2.7772295e-08
2.7772295e-08
2.7772295e-08
2.7772295e-08
2.7772295e-08
2.7772295e-08
2.7772295e-08
2.7772295e-08
2.7772295e-08
2.7772295e-08
2.7772295e-08
2.7772294e-08
2.7772294e-08
2.7772268e-08
2.7772287e-08
2.7772287e-08
2.7772287e-08
2.7772291e-08
2.7772291e-08
2.7772293e-08
2.7772293e-08
2.7772294e-08
2.7772294e-08
2.7772294e-08
2.7772294e-08
2.7772295e-08
2.7772295e-08
2.7772295e-08
2.7772295e-08
2.7772295e-08
2.7772289e-08
2.7772289e-08
2.7772289e-08
2.7772289e-08
2.7772289e-08
2.7772289e-08
2.7772289e-08
2.7772289e-08
2.7772289e-08
2.7772289e-08
2.7772289e-08
2.7772292e-08
2.7772292e-08
2.7772289e-08
2.7772292e-08
2.777229e-08
2.777229e-08
2.777229e-08
2.777228e-08
)
;
    }
}


// ************************************************************************* //
