/*--------------------------------*- C++ -*----------------------------------*\
| =========                 |                                                 |
| \\      /  F ield         | OpenFOAM: The Open Source CFD Toolbox           |
|  \\    /   O peration     | Version:  2206                                  |
|   \\  /    A nd           | Website:  www.openfoam.com                      |
|    \\/     M anipulation  |                                                 |
\*---------------------------------------------------------------------------*/
FoamFile
{
    version     2.0;
    format      ascii;
    arch        "LSB;label=32;scalar=64";
    class       volScalarField;
    location    "0.02";
    object      nut;
}
// * * * * * * * * * * * * * * * * * * * * * * * * * * * * * * * * * * * * * //

dimensions      [0 2 -1 0 0 0 0];

internalField   nonuniform List<scalar> 
1396
(
2.7771817e-08
2.7771798e-08
2.7771779e-08
2.7771758e-08
2.7771736e-08
2.7771714e-08
2.777169e-08
2.7771665e-08
2.7771632e-08
2.7771603e-08
2.777157e-08
2.7771537e-08
2.7771502e-08
2.7771466e-08
2.7771929e-08
2.7771917e-08
2.7771905e-08
2.7771892e-08
2.7771879e-08
2.7771865e-08
2.777185e-08
2.777183e-08
2.7771813e-08
2.7771795e-08
2.7771777e-08
2.7771757e-08
2.7771737e-08
2.7771718e-08
2.7772014e-08
2.7772007e-08
2.7772e-08
2.7771991e-08
2.777198e-08
2.7771972e-08
2.7771963e-08
2.7771953e-08
2.7771944e-08
2.7771934e-08
2.7771924e-08
2.7771914e-08
2.7771903e-08
2.7771893e-08
2.7772082e-08
2.7772078e-08
2.7772074e-08
2.7772069e-08
2.7772064e-08
2.7772059e-08
2.7772054e-08
2.7772049e-08
2.7772044e-08
2.7772039e-08
2.7772034e-08
2.7772029e-08
2.7772023e-08
2.7772019e-08
2.7772137e-08
2.7772134e-08
2.7772132e-08
2.7772129e-08
2.7772127e-08
2.7772124e-08
2.7772121e-08
2.7772119e-08
2.7772116e-08
2.7772113e-08
2.7772111e-08
2.7772108e-08
2.7772105e-08
2.7772103e-08
2.7772178e-08
2.7772176e-08
2.7772175e-08
2.7772173e-08
2.7772172e-08
2.777217e-08
2.7772169e-08
2.7772168e-08
2.7772166e-08
2.7772165e-08
2.7772163e-08
2.7772162e-08
2.777216e-08
2.7772159e-08
2.7772208e-08
2.7772207e-08
2.7772206e-08
2.7772205e-08
2.7772205e-08
2.7772204e-08
2.7772203e-08
2.7772202e-08
2.7772201e-08
2.77722e-08
2.7772199e-08
2.7772199e-08
2.7772198e-08
2.7772197e-08
2.777223e-08
2.777223e-08
2.7772229e-08
2.7772229e-08
2.7772228e-08
2.7772228e-08
2.7772227e-08
2.7772227e-08
2.7772226e-08
2.7772226e-08
2.7772225e-08
2.7772225e-08
2.7772224e-08
2.7772224e-08
2.7772276e-08
2.7772277e-08
2.7772277e-08
2.7772278e-08
2.7772278e-08
2.7772279e-08
2.7772279e-08
2.777228e-08
2.7772281e-08
2.777227e-08
2.7772271e-08
2.7772271e-08
2.7772272e-08
2.7772273e-08
2.7772274e-08
2.7772274e-08
2.7772263e-08
2.7772264e-08
2.7772265e-08
2.7772265e-08
2.7772266e-08
2.7772254e-08
2.7772255e-08
2.7772256e-08
2.7772241e-08
2.7772242e-08
2.7772227e-08
2.7772244e-08
2.7772257e-08
2.7772267e-08
2.7772275e-08
2.7772281e-08
2.7772228e-08
2.7772245e-08
2.7772257e-08
2.7772267e-08
2.7772275e-08
2.7772282e-08
2.7772229e-08
2.7772245e-08
2.7772258e-08
2.7772268e-08
2.7772275e-08
2.7772282e-08
2.7772231e-08
2.7772247e-08
2.7772259e-08
2.7772268e-08
2.7772276e-08
2.7772282e-08
2.7772232e-08
2.7772247e-08
2.7772259e-08
2.7772269e-08
2.7772276e-08
2.7772282e-08
2.7772212e-08
2.7772233e-08
2.7772248e-08
2.777226e-08
2.7772269e-08
2.7772277e-08
2.7772283e-08
2.7772214e-08
2.7772234e-08
2.7772249e-08
2.777226e-08
2.777227e-08
2.7772277e-08
2.7772283e-08
2.7772216e-08
2.7772235e-08
2.777225e-08
2.7772261e-08
2.777227e-08
2.7772277e-08
2.7772283e-08
2.7772217e-08
2.7772236e-08
2.7772251e-08
2.7772262e-08
2.7772271e-08
2.7772278e-08
2.7772283e-08
2.7772193e-08
2.7772219e-08
2.7772238e-08
2.7772252e-08
2.7772262e-08
2.7772271e-08
2.7772278e-08
2.7772284e-08
2.7772196e-08
2.7772221e-08
2.7772238e-08
2.7772252e-08
2.7772263e-08
2.7772272e-08
2.7772278e-08
2.7772284e-08
2.7772198e-08
2.7772222e-08
2.777224e-08
2.7772253e-08
2.7772264e-08
2.7772272e-08
2.7772279e-08
2.7772284e-08
2.7772201e-08
2.7772224e-08
2.7772241e-08
2.7772254e-08
2.7772264e-08
2.7772273e-08
2.7772279e-08
2.7772284e-08
2.7772203e-08
2.7772226e-08
2.7772242e-08
2.7772255e-08
2.7772265e-08
2.7772273e-08
2.7772279e-08
2.7772285e-08
2.7771914e-08
2.7771998e-08
2.7772059e-08
2.7772111e-08
2.7772155e-08
2.7772189e-08
2.7772215e-08
2.7772235e-08
2.7772034e-08
2.7772081e-08
2.7772119e-08
2.7772155e-08
2.7772183e-08
2.7772207e-08
2.7772227e-08
2.7772242e-08
2.7772072e-08
2.7772107e-08
2.7772136e-08
2.7772161e-08
2.7772185e-08
2.7772205e-08
2.7772222e-08
2.7772237e-08
2.7772249e-08
2.7772106e-08
2.7772133e-08
2.7772155e-08
2.7772175e-08
2.7772192e-08
2.7772208e-08
2.7772222e-08
2.7772236e-08
2.7772246e-08
2.7772256e-08
2.7772156e-08
2.7772174e-08
2.7772188e-08
2.7772203e-08
2.7772214e-08
2.7772225e-08
2.7772236e-08
2.7772246e-08
2.7772255e-08
2.777218e-08
2.7772191e-08
2.7772203e-08
2.7772213e-08
2.7772223e-08
2.7772231e-08
2.777224e-08
2.7772247e-08
2.7772255e-08
2.7772261e-08
2.7772208e-08
2.7772216e-08
2.7772224e-08
2.7772232e-08
2.7772239e-08
2.7772244e-08
2.7772251e-08
2.7772256e-08
2.7772262e-08
2.7772267e-08
2.7772229e-08
2.7772235e-08
2.777224e-08
2.7772246e-08
2.777225e-08
2.7772255e-08
2.7772259e-08
2.7772264e-08
2.7772268e-08
2.7772272e-08
2.7772245e-08
2.7772249e-08
2.7772253e-08
2.7772257e-08
2.777226e-08
2.7772263e-08
2.7772267e-08
2.777227e-08
2.7772274e-08
2.7772257e-08
2.777226e-08
2.7772263e-08
2.7772265e-08
2.7772268e-08
2.777227e-08
2.7772273e-08
2.7772276e-08
2.7772278e-08
2.7772266e-08
2.7772269e-08
2.7772271e-08
2.7772272e-08
2.7772274e-08
2.7772276e-08
2.7772278e-08
2.777228e-08
2.7772282e-08
2.7772274e-08
2.7772276e-08
2.7772277e-08
2.7772278e-08
2.777228e-08
2.7772281e-08
2.7772283e-08
2.7772284e-08
2.777228e-08
2.7772281e-08
2.7772282e-08
2.7772283e-08
2.7772284e-08
2.7772285e-08
2.7772287e-08
2.7772288e-08
2.7772285e-08
2.7772286e-08
2.7772286e-08
2.7772287e-08
2.7772288e-08
2.7772289e-08
2.777229e-08
2.7731532e-08
2.7769581e-08
2.7769442e-08
2.776932e-08
2.7769152e-08
2.7768913e-08
2.7770896e-08
2.7770891e-08
2.777086e-08
2.7770849e-08
2.7770866e-08
2.7770891e-08
2.7770939e-08
2.7771007e-08
2.7771085e-08
2.7771166e-08
2.7771431e-08
2.7771421e-08
2.7771406e-08
2.7771398e-08
2.7771386e-08
2.7771392e-08
2.7771401e-08
2.7771419e-08
2.7771448e-08
2.7771482e-08
2.7771523e-08
2.7771568e-08
2.7771615e-08
2.7771663e-08
2.7771702e-08
2.7771695e-08
2.7771696e-08
2.77717e-08
2.7771707e-08
2.7771719e-08
2.7771734e-08
2.7771752e-08
2.7771773e-08
2.7771795e-08
2.777182e-08
2.7771845e-08
2.777187e-08
2.7771894e-08
2.7771887e-08
2.777189e-08
2.7771896e-08
2.7771902e-08
2.7771911e-08
2.777192e-08
2.7771931e-08
2.7771943e-08
2.7771956e-08
2.7771969e-08
2.7771982e-08
2.7771996e-08
2.777201e-08
2.7772023e-08
2.7772016e-08
2.7772021e-08
2.7772025e-08
2.777203e-08
2.7772036e-08
2.7772042e-08
2.7772049e-08
2.7772056e-08
2.7772063e-08
2.7772071e-08
2.7772079e-08
2.7772086e-08
2.7772094e-08
2.7772102e-08
2.7772102e-08
2.7772105e-08
2.7772108e-08
2.7772111e-08
2.7772115e-08
2.7772119e-08
2.7772123e-08
2.7772127e-08
2.7772131e-08
2.7772135e-08
2.777214e-08
2.7772144e-08
2.7772148e-08
2.7772153e-08
2.7772159e-08
2.7772161e-08
2.7772162e-08
2.7772164e-08
2.7772166e-08
2.7772168e-08
2.7772171e-08
2.7772173e-08
2.7772175e-08
2.7772178e-08
2.777218e-08
2.7772183e-08
2.7772186e-08
2.7772188e-08
2.7772197e-08
2.7772198e-08
2.7772199e-08
2.77722e-08
2.7772201e-08
2.7772202e-08
2.7772204e-08
2.7772205e-08
2.7772206e-08
2.7772208e-08
2.7772209e-08
2.777221e-08
2.7772212e-08
2.7772213e-08
2.7772224e-08
2.7772224e-08
2.7772225e-08
2.7772225e-08
2.7772226e-08
2.7772226e-08
2.7772227e-08
2.7772227e-08
2.7772228e-08
2.7772229e-08
1.7875296e-08
1.6807776e-08
1.7170325e-08
1.9150027e-08
1.765861e-08
2.2348675e-08
2.3178932e-08
2.5177076e-08
2.7585648e-08
2.6280149e-08
2.7912136e-08
3.1405224e-08
2.6551922e-08
2.6822495e-08
2.7606158e-08
2.7345375e-08
2.7317305e-08
2.7100968e-08
2.3504331e-08
2.6398658e-08
2.7466e-08
2.7720433e-08
2.2580649e-08
2.6025397e-08
2.7584564e-08
2.7935678e-08
2.1899784e-08
2.5694281e-08
2.7594527e-08
2.8064274e-08
2.5384992e-08
2.7720001e-08
2.8258396e-08
2.5120612e-08
2.7770036e-08
2.8409626e-08
2.4871894e-08
2.7872534e-08
2.8584984e-08
2.4714321e-08
2.7941241e-08
2.8727461e-08
2.4707926e-08
2.8053058e-08
2.8855006e-08
2.4772299e-08
2.8161238e-08
2.894794e-08
2.4918908e-08
2.8289171e-08
2.9015449e-08
2.5128668e-08
2.8435724e-08
2.9067774e-08
2.5403133e-08
2.8608981e-08
2.9122076e-08
2.5779034e-08
2.8842855e-08
2.9214155e-08
2.6249747e-08
2.9081861e-08
2.9317878e-08
2.7737343e-08
2.7661823e-08
2.7497361e-08
2.7190792e-08
2.6739674e-08
2.6207162e-08
2.5766586e-08
2.5567969e-08
2.5701354e-08
2.615055e-08
2.669866e-08
2.7107984e-08
2.7381479e-08
2.7621269e-08
2.7769277e-08
2.7766632e-08
2.7760255e-08
2.77465e-08
2.7722343e-08
2.7687452e-08
2.7649738e-08
2.7620933e-08
2.761301e-08
2.7628212e-08
2.7666311e-08
2.7714646e-08
2.7745451e-08
2.7760507e-08
2.7771227e-08
2.7771144e-08
2.7770961e-08
2.7770541e-08
2.7769744e-08
2.7768478e-08
2.7766965e-08
2.776564e-08
2.7765053e-08
2.7765476e-08
2.7766255e-08
2.776835e-08
2.77708e-08
2.7771396e-08
2.777169e-08
2.7771685e-08
2.7771681e-08
2.7771672e-08
2.7771651e-08
2.7771617e-08
2.7771572e-08
2.777153e-08
2.7771509e-08
2.7771524e-08
2.777155e-08
2.777158e-08
2.7771701e-08
2.7771773e-08
2.7771908e-08
2.7771908e-08
2.7771908e-08
2.7771909e-08
2.777191e-08
2.7771911e-08
2.7771912e-08
2.7771913e-08
2.7771914e-08
2.7771917e-08
2.7771921e-08
2.7771925e-08
2.7771931e-08
2.7771937e-08
2.7772031e-08
2.7772031e-08
2.7772031e-08
2.7772032e-08
2.7772033e-08
2.7772034e-08
2.7772035e-08
2.7772036e-08
2.7772037e-08
2.7772039e-08
2.7772041e-08
2.7772042e-08
2.7772044e-08
2.7772046e-08
2.7772106e-08
2.7772106e-08
2.7772106e-08
2.7772107e-08
2.7772107e-08
2.7772108e-08
2.7772108e-08
2.7772109e-08
2.777211e-08
2.7772111e-08
2.7772112e-08
2.7772113e-08
2.7772114e-08
2.7772115e-08
2.7772155e-08
2.7772155e-08
2.7772156e-08
2.7772156e-08
2.7772156e-08
2.7772157e-08
2.7772157e-08
2.7772157e-08
2.7772158e-08
2.7772158e-08
2.7772159e-08
2.7772159e-08
2.777216e-08
2.7772161e-08
2.777219e-08
2.777219e-08
2.777219e-08
2.777219e-08
2.777219e-08
2.777219e-08
2.7772191e-08
2.7772191e-08
2.7772191e-08
2.7772191e-08
2.7772192e-08
2.7772192e-08
2.7772192e-08
2.7772193e-08
2.7772214e-08
2.7772214e-08
2.7772214e-08
2.7772214e-08
2.7772214e-08
2.7772215e-08
2.7772215e-08
2.7772215e-08
2.7772215e-08
2.7772215e-08
2.7772215e-08
2.7772216e-08
2.7772216e-08
2.7772216e-08
2.7772217e-08
2.7772195e-08
2.7772163e-08
2.7772119e-08
2.7772053e-08
2.7771948e-08
2.7771778e-08
2.7771913e-08
2.7786161e-08
2.8046245e-08
2.7772217e-08
2.7772194e-08
2.7772163e-08
2.7772119e-08
2.7772052e-08
2.7771948e-08
2.7771778e-08
2.7771877e-08
2.7785793e-08
2.8037581e-08
2.7772217e-08
2.7772194e-08
2.7772163e-08
2.7772118e-08
2.7772052e-08
2.7771947e-08
2.7771776e-08
2.7771856e-08
2.7785127e-08
2.8029341e-08
2.7772217e-08
2.7772194e-08
2.7772163e-08
2.7772118e-08
2.7772052e-08
2.7771946e-08
2.7771774e-08
2.7771823e-08
2.7784159e-08
2.8016904e-08
2.7772217e-08
2.7772194e-08
2.7772163e-08
2.7772118e-08
2.7772051e-08
2.7771946e-08
2.7771771e-08
2.7771777e-08
2.7782866e-08
2.799833e-08
2.7772217e-08
2.7772194e-08
2.7772162e-08
2.7772118e-08
2.7772051e-08
2.7771945e-08
2.7771769e-08
2.7771727e-08
2.7781403e-08
2.7975438e-08
2.7772217e-08
2.7772194e-08
2.7772162e-08
2.7772117e-08
2.7772051e-08
2.7771944e-08
2.7771766e-08
2.7771672e-08
2.7779813e-08
2.7948421e-08
2.7772217e-08
2.7772194e-08
2.7772162e-08
2.7772117e-08
2.777205e-08
2.7771944e-08
2.7771764e-08
2.7771614e-08
2.7778161e-08
2.7918671e-08
2.7772217e-08
2.7772194e-08
2.7772162e-08
2.7772117e-08
2.777205e-08
2.7771943e-08
2.7771762e-08
2.7771555e-08
2.7776463e-08
2.7887877e-08
2.7772216e-08
2.7772194e-08
2.7772162e-08
2.7772117e-08
2.777205e-08
2.7771943e-08
2.777176e-08
2.7771517e-08
2.7774743e-08
2.7855717e-08
2.7772216e-08
2.7772193e-08
2.7772162e-08
2.7772117e-08
2.7772049e-08
2.7771942e-08
2.7771755e-08
2.7771462e-08
2.777309e-08
2.7824292e-08
2.7772216e-08
2.7772193e-08
2.7772162e-08
2.7772117e-08
2.7772049e-08
2.7771942e-08
2.7771753e-08
2.7771408e-08
2.7772033e-08
2.7789722e-08
2.7772216e-08
2.7772193e-08
2.7772162e-08
2.7772116e-08
2.7772049e-08
2.7771941e-08
2.7771755e-08
2.7771316e-08
2.776997e-08
2.7759957e-08
2.7772216e-08
2.7772193e-08
2.7772162e-08
2.7772116e-08
2.7772049e-08
2.7771941e-08
2.7771758e-08
2.7771324e-08
2.7767692e-08
2.7725668e-08
2.7771837e-08
2.7771919e-08
2.7771982e-08
2.7772031e-08
2.777207e-08
2.7769469e-08
2.7771524e-08
2.777159e-08
2.777174e-08
2.7771846e-08
2.7771925e-08
2.7771987e-08
2.7772035e-08
2.7772073e-08
2.8720997e-08
2.7636123e-08
2.7789024e-08
2.7769837e-08
2.7771513e-08
2.7771609e-08
2.7771752e-08
2.7771855e-08
2.7771932e-08
2.7771991e-08
2.7772038e-08
2.7772075e-08
3.4809961e-08
2.5994542e-08
2.8447004e-08
2.7669249e-08
2.778333e-08
2.7770231e-08
2.7771511e-08
2.777163e-08
2.7771766e-08
2.7771864e-08
2.7771939e-08
2.7771996e-08
2.7772042e-08
2.7772078e-08
3.3292095e-08
2.6365618e-08
2.8231519e-08
2.7698855e-08
2.7778999e-08
2.7770598e-08
2.7771519e-08
2.7771651e-08
2.777178e-08
2.7771873e-08
2.7771945e-08
2.7772001e-08
2.7772045e-08
2.7772081e-08
3.1929068e-08
2.6621788e-08
2.8090853e-08
2.7722295e-08
2.7776012e-08
2.7770879e-08
2.777153e-08
2.7771672e-08
2.7771794e-08
2.7771884e-08
2.7771953e-08
2.7772007e-08
2.777205e-08
2.7772085e-08
2.993831e-08
2.7073501e-08
2.7939501e-08
2.7746635e-08
2.777353e-08
2.7771129e-08
2.777155e-08
2.7771693e-08
2.7771807e-08
2.7771893e-08
2.7771959e-08
2.7772011e-08
2.7772053e-08
2.7772087e-08
2.804059e-08
2.7675227e-08
2.7789901e-08
2.7768504e-08
2.777151e-08
2.7771456e-08
2.7771645e-08
2.7771767e-08
2.7771861e-08
2.7771934e-08
2.7771991e-08
2.7772036e-08
2.7772073e-08
2.7772102e-08
2.7784864e-08
2.7764969e-08
2.7772431e-08
2.7771336e-08
2.7771579e-08
2.7771706e-08
2.7771805e-08
2.7771885e-08
2.7771949e-08
2.7772e-08
2.7772042e-08
2.7772077e-08
2.7772106e-08
2.7772129e-08
2.7771807e-08
2.7771643e-08
2.7771591e-08
2.7771734e-08
2.7771802e-08
2.7771872e-08
2.7771931e-08
2.777198e-08
2.7772023e-08
2.7772058e-08
2.7772089e-08
2.7772115e-08
2.7772137e-08
2.7772155e-08
2.7771786e-08
2.7771844e-08
2.7771853e-08
2.7771907e-08
2.7771948e-08
2.7771987e-08
2.7772022e-08
2.7772054e-08
2.7772082e-08
2.7772106e-08
2.7772128e-08
2.7772147e-08
2.7772164e-08
2.7772178e-08
2.7771955e-08
2.7771974e-08
2.7771996e-08
2.7772019e-08
2.7772043e-08
2.7772066e-08
2.7772088e-08
2.7772108e-08
2.7772127e-08
2.7772144e-08
2.777216e-08
2.7772174e-08
2.7772186e-08
2.7772197e-08
2.7772056e-08
2.7772067e-08
2.7772079e-08
2.7772093e-08
2.7772107e-08
2.7772122e-08
2.7772136e-08
2.777215e-08
2.7772162e-08
2.7772175e-08
2.7772186e-08
2.7772196e-08
2.7772206e-08
2.7772214e-08
2.7772121e-08
2.7772127e-08
2.7772135e-08
2.7772143e-08
2.7772152e-08
2.7772162e-08
2.7772171e-08
2.7772181e-08
2.777219e-08
2.7772198e-08
2.7772207e-08
2.7772214e-08
2.7772222e-08
2.7772228e-08
2.7772165e-08
2.7772168e-08
2.7772173e-08
2.7772179e-08
2.7772185e-08
2.7772191e-08
2.7772198e-08
2.7772204e-08
2.7772211e-08
2.7772217e-08
2.7772223e-08
2.7772229e-08
2.7772235e-08
2.777224e-08
2.7772195e-08
2.7772198e-08
2.7772201e-08
2.7772205e-08
2.7772209e-08
2.7772214e-08
2.7772218e-08
2.7772223e-08
2.7772228e-08
2.7772232e-08
2.7772237e-08
2.7772242e-08
2.7772246e-08
2.777225e-08
2.7772218e-08
2.777222e-08
2.7772222e-08
2.7772224e-08
2.7772227e-08
2.777223e-08
2.7772234e-08
2.7772237e-08
2.7772241e-08
2.7772245e-08
2.7772248e-08
2.7772252e-08
2.7772255e-08
2.7772258e-08
2.7772321e-08
2.7772321e-08
2.7772321e-08
2.7772321e-08
2.7772322e-08
2.7772322e-08
2.7772322e-08
2.7772322e-08
2.7772322e-08
2.7772322e-08
2.777232e-08
2.7772321e-08
2.7772321e-08
2.7772321e-08
2.7772321e-08
2.7772322e-08
2.7772322e-08
2.7772322e-08
2.7772322e-08
2.7772322e-08
2.7772322e-08
2.7772318e-08
2.777232e-08
2.7772321e-08
2.7772321e-08
2.7772321e-08
2.7772321e-08
2.7772322e-08
2.7772322e-08
2.7772322e-08
2.7772322e-08
2.7772322e-08
2.7772322e-08
2.7772312e-08
2.7772318e-08
2.777232e-08
2.7772321e-08
2.7772321e-08
2.7772321e-08
2.7772321e-08
2.7772322e-08
2.7772322e-08
2.7772322e-08
2.7772322e-08
2.7772322e-08
2.7772322e-08
2.7772312e-08
2.7772318e-08
2.777232e-08
2.7772321e-08
2.7772321e-08
2.7772321e-08
2.7772321e-08
2.7772322e-08
2.7772322e-08
2.7772322e-08
2.7772322e-08
2.7772322e-08
2.7772322e-08
2.7772277e-08
2.7772312e-08
2.7772318e-08
2.777232e-08
2.7772321e-08
2.7772321e-08
2.7772321e-08
2.7772321e-08
2.7772322e-08
2.7772322e-08
2.7772322e-08
2.7772322e-08
2.7772322e-08
2.7772322e-08
2.7772277e-08
2.7772312e-08
2.7772318e-08
2.777232e-08
2.7772321e-08
2.7772321e-08
2.7772321e-08
2.7772321e-08
2.7772322e-08
2.7772322e-08
2.7772322e-08
2.7772322e-08
2.7772322e-08
2.7772322e-08
2.7772277e-08
2.7772312e-08
2.7772318e-08
2.777232e-08
2.7772321e-08
2.7772321e-08
2.7772321e-08
2.7772321e-08
2.7772322e-08
2.7772322e-08
2.7772322e-08
2.7772322e-08
2.7772322e-08
2.7772322e-08
2.7772277e-08
2.7772312e-08
2.7772318e-08
2.777232e-08
2.7772321e-08
2.7772321e-08
2.7772321e-08
2.7772321e-08
2.7772322e-08
2.7772322e-08
2.7772322e-08
2.7772322e-08
2.7772322e-08
2.7772322e-08
2.7772277e-08
2.7772312e-08
2.7772318e-08
2.777232e-08
2.7772321e-08
2.7772321e-08
2.7772321e-08
2.7772321e-08
2.7772322e-08
2.7772322e-08
2.7772322e-08
2.7772322e-08
2.7772322e-08
2.7772322e-08
2.7772278e-08
2.7772312e-08
2.7772318e-08
2.777232e-08
2.7772321e-08
2.7772321e-08
2.7772321e-08
2.7772321e-08
2.7772322e-08
2.7772322e-08
2.7772322e-08
2.7772322e-08
2.7772322e-08
2.7772278e-08
2.7772312e-08
2.7772318e-08
2.777232e-08
2.7772321e-08
2.7772321e-08
2.7772321e-08
2.7772321e-08
2.7772322e-08
2.7772322e-08
2.7772322e-08
2.7772322e-08
2.7772278e-08
2.7772312e-08
2.7772318e-08
2.777232e-08
2.7772321e-08
2.7772321e-08
2.7772321e-08
2.7772321e-08
2.7772322e-08
2.7772322e-08
2.7772322e-08
2.7772278e-08
2.7772312e-08
2.7772318e-08
2.777232e-08
2.7772321e-08
2.7772321e-08
2.7772321e-08
2.7772321e-08
2.7772322e-08
2.7772322e-08
2.7772303e-08
2.7772315e-08
2.7772315e-08
2.7772315e-08
2.7772315e-08
2.7772315e-08
2.7772315e-08
2.7772315e-08
2.7772316e-08
2.7772316e-08
2.7772316e-08
2.7772316e-08
2.7772316e-08
2.7772316e-08
2.7772319e-08
2.7772319e-08
2.7772319e-08
2.7772319e-08
2.7772319e-08
2.7772319e-08
2.7772319e-08
2.7772319e-08
2.7772319e-08
2.7772319e-08
2.7772319e-08
2.7772319e-08
2.7772319e-08
2.7772319e-08
2.777232e-08
2.777232e-08
2.777232e-08
2.777232e-08
2.777232e-08
2.777232e-08
2.777232e-08
2.777232e-08
2.7772319e-08
2.7772319e-08
2.7772319e-08
2.7772319e-08
2.7772319e-08
2.7772316e-08
2.7772316e-08
2.7772316e-08
2.7772316e-08
2.7772316e-08
2.7772316e-08
2.7772316e-08
2.7772316e-08
2.7772316e-08
2.7772316e-08
2.7772316e-08
2.7772316e-08
2.7772316e-08
2.7772316e-08
2.7772303e-08
2.7772303e-08
2.7772303e-08
2.7772304e-08
2.7772304e-08
2.7772304e-08
2.7772304e-08
2.7772304e-08
2.7772304e-08
2.7772304e-08
2.7772304e-08
2.7772304e-08
2.7772305e-08
2.7772305e-08
2.7772322e-08
2.7772322e-08
2.7772322e-08
2.7772322e-08
2.7772322e-08
2.7772322e-08
2.7772322e-08
2.7772322e-08
2.7772322e-08
2.7772322e-08
2.7772322e-08
2.7772322e-08
2.7772322e-08
2.7772322e-08
2.7772322e-08
2.7772322e-08
2.7772321e-08
2.7772322e-08
2.7772322e-08
2.7772322e-08
2.7772321e-08
2.7772321e-08
2.7772322e-08
2.7772321e-08
2.7772321e-08
2.7772321e-08
2.7772321e-08
2.7772321e-08
2.7772321e-08
2.777232e-08
2.7772321e-08
2.7772321e-08
2.777232e-08
2.7772321e-08
2.7772321e-08
2.777232e-08
2.7772319e-08
2.7772321e-08
2.777232e-08
2.7772319e-08
2.777232e-08
2.7772319e-08
2.7772293e-08
2.7772291e-08
2.7772289e-08
2.7772287e-08
2.7772285e-08
2.7772283e-08
2.7772281e-08
2.7772279e-08
2.7772313e-08
2.7772313e-08
2.7772312e-08
2.7772312e-08
2.7772312e-08
2.7772312e-08
2.7772318e-08
2.7772318e-08
2.7772318e-08
2.7772318e-08
2.7772318e-08
2.777232e-08
2.777232e-08
2.777232e-08
2.777232e-08
2.7772321e-08
2.7772321e-08
2.7772321e-08
2.7772321e-08
2.7772321e-08
2.7772321e-08
2.7772321e-08
2.7772322e-08
2.7772305e-08
2.7772305e-08
2.7772305e-08
2.7772305e-08
2.7772305e-08
2.7772305e-08
2.7772305e-08
2.7772305e-08
2.7772305e-08
2.7772305e-08
2.7772305e-08
2.7772306e-08
2.7772306e-08
2.7772306e-08
2.7772316e-08
2.7772316e-08
2.7772316e-08
2.7772306e-08
2.7772306e-08
2.7772306e-08
2.7772322e-08
2.7772322e-08
2.7772322e-08
2.7772322e-08
2.7772322e-08
2.7772322e-08
2.7772322e-08
2.7772322e-08
2.7772322e-08
2.7772321e-08
)
;

boundaryField
{
    Side
    {
        type            empty;
    }
    Inlet
    {
        type            inletOutlet;
        inletValue      uniform 3.9592226e-07;
        value           nonuniform List<scalar> 
15
(
3.9592226e-07
3.9592226e-07
3.9592226e-07
3.9592226e-07
3.9592226e-07
3.9592226e-07
3.9592226e-07
3.9592226e-07
3.9592226e-07
3.9592226e-07
2.7772322e-08
2.7772322e-08
2.7772322e-08
3.9592226e-07
3.9592226e-07
)
;
    }
    Airfoil
    {
        type            nutUSpaldingWallFunction;
        value           nonuniform List<scalar> 0();
    }
    Outlet
    {
        type            zeroGradient;
    }
    Flap
    {
        type            nutUSpaldingWallFunction;
        value           nonuniform List<scalar> 0();
    }
    procBoundary5to4
    {
        type            processor;
        value           nonuniform List<scalar> 
189
(
2.7771666e-08
2.7771632e-08
2.7771602e-08
2.7771568e-08
2.7771531e-08
2.7771493e-08
2.7771452e-08
2.7771409e-08
2.7771363e-08
2.7771311e-08
2.7771245e-08
2.7771185e-08
2.7771118e-08
2.7771049e-08
2.7772274e-08
2.7772274e-08
2.7772275e-08
2.7772275e-08
2.7772276e-08
2.7772276e-08
2.7772269e-08
2.7772269e-08
2.7772269e-08
2.7772261e-08
2.7772262e-08
2.7772262e-08
2.7772252e-08
2.7772253e-08
2.7772253e-08
2.777224e-08
2.777224e-08
2.7772223e-08
2.7772224e-08
2.7772224e-08
2.7772274e-08
2.7772203e-08
2.7772206e-08
2.7772206e-08
2.7772209e-08
2.777221e-08
2.777221e-08
2.7772184e-08
2.7772185e-08
2.7772189e-08
2.7772191e-08
2.7772191e-08
2.7772158e-08
2.7772162e-08
2.7772165e-08
2.7772168e-08
2.7772172e-08
2.7772172e-08
2.7771811e-08
2.7771975e-08
2.7771975e-08
2.7772027e-08
2.7772027e-08
2.7772077e-08
2.7772138e-08
2.7772138e-08
2.7757572e-08
2.7752879e-08
2.7747573e-08
2.7740665e-08
2.7740665e-08
2.7278271e-08
2.7769965e-08
2.7769915e-08
2.7769841e-08
2.7769775e-08
2.7769709e-08
2.7769709e-08
2.7770991e-08
2.7770959e-08
2.7770937e-08
2.7770916e-08
2.7770916e-08
2.7347894e-08
2.6428839e-08
2.483354e-08
2.2500116e-08
1.9938366e-08
1.9938366e-08
1.3624993e-08
1.2936604e-08
1.4077689e-08
1.4077689e-08
1.9596005e-08
2.828748e-08
3.4060775e-08
3.4060775e-08
3.4798921e-08
2.7110885e-08
2.5565755e-08
2.5565755e-08
1.8307885e-08
1.7371629e-08
1.6874785e-08
2.0983263e-08
2.0983263e-08
2.0756226e-08
2.0294343e-08
2.0201532e-08
2.0301826e-08
2.0506614e-08
2.0787281e-08
2.1127748e-08
2.15724e-08
2.2118265e-08
2.2723507e-08
2.2723507e-08
2.7772069e-08
2.777183e-08
2.7771914e-08
2.7771978e-08
2.7772029e-08
2.7772068e-08
2.7772068e-08
2.7769184e-08
2.7771545e-08
2.7771572e-08
2.7771728e-08
2.7771728e-08
2.9063107e-08
2.7600039e-08
2.7796598e-08
2.7796598e-08
3.6435489e-08
2.5612189e-08
2.5612189e-08
2.777232e-08
2.777232e-08
2.7772321e-08
2.7772321e-08
2.7772321e-08
2.7772318e-08
2.7772318e-08
2.7772312e-08
2.7772312e-08
2.7772277e-08
2.7772277e-08
2.7772277e-08
2.7772303e-08
2.7772303e-08
2.7772303e-08
2.7772303e-08
2.7772303e-08
2.7772303e-08
2.7772303e-08
2.7772303e-08
2.7772303e-08
2.7772303e-08
2.7772303e-08
2.7772303e-08
2.7772303e-08
2.7772315e-08
2.7772315e-08
2.7772322e-08
2.7772322e-08
2.7772322e-08
2.7772322e-08
2.7772322e-08
2.7772322e-08
2.7772322e-08
2.7772322e-08
2.7772322e-08
2.7772322e-08
2.7772321e-08
2.7772321e-08
2.7772321e-08
2.7772321e-08
2.7772321e-08
2.777232e-08
2.777232e-08
2.7772319e-08
2.7772319e-08
2.7772319e-08
2.7772315e-08
2.7772315e-08
2.7772316e-08
2.7772322e-08
2.7772322e-08
2.7772322e-08
2.7772322e-08
2.7772322e-08
2.7772322e-08
2.7772322e-08
2.7772321e-08
2.7772321e-08
)
;
    }
    procBoundary5to6
    {
        type            processor;
        value           nonuniform List<scalar> 
188
(
2.7772247e-08
2.7772247e-08
2.7772247e-08
2.7772246e-08
2.7772246e-08
2.7772246e-08
2.7772245e-08
2.7772245e-08
2.7772245e-08
2.7772244e-08
2.7772244e-08
2.7772244e-08
2.7772243e-08
2.7772243e-08
2.777225e-08
2.7772255e-08
2.777226e-08
2.7772264e-08
2.7772262e-08
2.7772262e-08
2.7772267e-08
2.7772272e-08
2.7772276e-08
2.7772277e-08
2.7772277e-08
2.7772281e-08
2.7772284e-08
2.7772286e-08
2.7772286e-08
2.7772289e-08
2.7772291e-08
2.7772306e-08
2.7772307e-08
2.7772307e-08
2.7772291e-08
2.7772307e-08
2.777223e-08
2.7772231e-08
2.7772232e-08
2.7772232e-08
2.7772243e-08
2.7772243e-08
2.7772243e-08
2.7772244e-08
2.7772244e-08
2.7772244e-08
2.7772244e-08
2.7772245e-08
2.7772245e-08
2.777223e-08
2.7772245e-08
2.7772233e-08
2.7772233e-08
2.7772233e-08
2.7772233e-08
2.7772233e-08
2.7772233e-08
2.7772233e-08
2.7772233e-08
2.7772233e-08
2.7772233e-08
2.7772233e-08
2.7772234e-08
2.7772234e-08
2.7772234e-08
2.7772235e-08
2.7772235e-08
2.7772235e-08
2.7772234e-08
2.7772234e-08
2.7772234e-08
2.7772234e-08
2.7772234e-08
2.7772234e-08
2.7772234e-08
2.7772234e-08
2.7772234e-08
2.7772234e-08
2.7772234e-08
2.7772295e-08
2.7772235e-08
2.7772236e-08
2.7772238e-08
2.777224e-08
2.7772242e-08
2.7772244e-08
2.7772247e-08
2.7772249e-08
2.7772252e-08
2.7772255e-08
2.7772258e-08
2.777226e-08
2.7772263e-08
2.7772266e-08
2.7772296e-08
2.7772322e-08
2.7772322e-08
2.7772322e-08
2.7772322e-08
2.7772322e-08
2.7772322e-08
2.7772322e-08
2.7772322e-08
2.7772322e-08
2.777232e-08
2.777232e-08
2.777232e-08
2.777232e-08
2.777232e-08
2.777232e-08
2.7772321e-08
2.7772321e-08
2.7772321e-08
2.7772321e-08
2.7772321e-08
2.7772321e-08
2.7772321e-08
2.777232e-08
2.7772321e-08
2.777232e-08
2.777232e-08
2.777232e-08
2.777232e-08
2.777232e-08
2.7772319e-08
2.7772319e-08
2.7772319e-08
2.7772319e-08
2.7772319e-08
2.7772319e-08
2.7772319e-08
2.7772319e-08
2.7772319e-08
2.7772319e-08
2.7772322e-08
2.7772322e-08
2.7772322e-08
2.7772322e-08
2.7772322e-08
2.7772322e-08
2.7772322e-08
2.7772322e-08
2.7772322e-08
2.7772322e-08
2.7772322e-08
2.7772321e-08
2.7772321e-08
2.7772321e-08
2.7772321e-08
2.7772321e-08
2.7772321e-08
2.7772321e-08
2.7772295e-08
2.7772313e-08
2.7772313e-08
2.7772313e-08
2.7772318e-08
2.7772318e-08
2.777232e-08
2.777232e-08
2.7772321e-08
2.7772321e-08
2.7772321e-08
2.7772321e-08
2.7772321e-08
2.7772321e-08
2.7772321e-08
2.7772322e-08
2.7772322e-08
2.7772316e-08
2.7772316e-08
2.7772316e-08
2.7772316e-08
2.7772316e-08
2.7772316e-08
2.7772316e-08
2.7772316e-08
2.7772316e-08
2.7772316e-08
2.7772316e-08
2.7772319e-08
2.7772319e-08
2.7772316e-08
2.7772319e-08
2.7772316e-08
2.7772316e-08
2.7772316e-08
2.7772306e-08
)
;
    }
}


// ************************************************************************* //
