/*--------------------------------*- C++ -*----------------------------------*\
| =========                 |                                                 |
| \\      /  F ield         | OpenFOAM: The Open Source CFD Toolbox           |
|  \\    /   O peration     | Version:  2206                                  |
|   \\  /    A nd           | Website:  www.openfoam.com                      |
|    \\/     M anipulation  |                                                 |
\*---------------------------------------------------------------------------*/
FoamFile
{
    version     2.0;
    format      ascii;
    arch        "LSB;label=32;scalar=64";
    class       volScalarField;
    location    "0.02";
    object      nuTilda;
}
// * * * * * * * * * * * * * * * * * * * * * * * * * * * * * * * * * * * * * //

dimensions      [0 2 -1 0 0 0 0];

internalField   nonuniform List<scalar> 
1396
(
3.9592036e-07
3.9592029e-07
3.9592022e-07
3.9592014e-07
3.9592006e-07
3.9591997e-07
3.9591988e-07
3.9591979e-07
3.9591966e-07
3.9591956e-07
3.9591943e-07
3.9591931e-07
3.9591917e-07
3.9591904e-07
3.9592078e-07
3.9592074e-07
3.9592069e-07
3.9592064e-07
3.9592059e-07
3.9592054e-07
3.9592048e-07
3.9592041e-07
3.9592034e-07
3.9592028e-07
3.9592021e-07
3.9592014e-07
3.9592006e-07
3.9591999e-07
3.959211e-07
3.9592108e-07
3.9592105e-07
3.9592102e-07
3.9592097e-07
3.9592094e-07
3.9592091e-07
3.9592087e-07
3.9592084e-07
3.959208e-07
3.9592076e-07
3.9592072e-07
3.9592068e-07
3.9592065e-07
3.9592136e-07
3.9592134e-07
3.9592133e-07
3.9592131e-07
3.9592129e-07
3.9592127e-07
3.9592125e-07
3.9592123e-07
3.9592121e-07
3.959212e-07
3.9592118e-07
3.9592116e-07
3.9592114e-07
3.9592112e-07
3.9592156e-07
3.9592155e-07
3.9592154e-07
3.9592153e-07
3.9592152e-07
3.9592151e-07
3.959215e-07
3.9592149e-07
3.9592148e-07
3.9592147e-07
3.9592146e-07
3.9592145e-07
3.9592144e-07
3.9592144e-07
3.9592172e-07
3.9592171e-07
3.9592171e-07
3.959217e-07
3.959217e-07
3.9592169e-07
3.9592168e-07
3.9592168e-07
3.9592167e-07
3.9592167e-07
3.9592166e-07
3.9592166e-07
3.9592165e-07
3.9592165e-07
3.9592183e-07
3.9592183e-07
3.9592182e-07
3.9592182e-07
3.9592182e-07
3.9592181e-07
3.9592181e-07
3.9592181e-07
3.9592181e-07
3.959218e-07
3.959218e-07
3.959218e-07
3.9592179e-07
3.9592179e-07
3.9592191e-07
3.9592191e-07
3.9592191e-07
3.9592191e-07
3.9592191e-07
3.959219e-07
3.959219e-07
3.959219e-07
3.959219e-07
3.959219e-07
3.959219e-07
3.9592189e-07
3.9592189e-07
3.9592189e-07
3.9592209e-07
3.9592209e-07
3.9592209e-07
3.9592209e-07
3.959221e-07
3.959221e-07
3.959221e-07
3.959221e-07
3.959221e-07
3.9592206e-07
3.9592207e-07
3.9592207e-07
3.9592207e-07
3.9592207e-07
3.9592208e-07
3.9592208e-07
3.9592204e-07
3.9592204e-07
3.9592204e-07
3.9592205e-07
3.9592205e-07
3.95922e-07
3.9592201e-07
3.9592201e-07
3.9592195e-07
3.9592196e-07
3.959219e-07
3.9592197e-07
3.9592201e-07
3.9592205e-07
3.9592208e-07
3.9592211e-07
3.9592191e-07
3.9592197e-07
3.9592202e-07
3.9592205e-07
3.9592208e-07
3.9592211e-07
3.9592191e-07
3.9592197e-07
3.9592202e-07
3.9592206e-07
3.9592208e-07
3.9592211e-07
3.9592192e-07
3.9592198e-07
3.9592202e-07
3.9592206e-07
3.9592209e-07
3.9592211e-07
3.9592192e-07
3.9592198e-07
3.9592202e-07
3.9592206e-07
3.9592209e-07
3.9592211e-07
3.9592185e-07
3.9592192e-07
3.9592198e-07
3.9592203e-07
3.9592206e-07
3.9592209e-07
3.9592211e-07
3.9592185e-07
3.9592193e-07
3.9592198e-07
3.9592203e-07
3.9592206e-07
3.9592209e-07
3.9592211e-07
3.9592186e-07
3.9592193e-07
3.9592199e-07
3.9592203e-07
3.9592206e-07
3.9592209e-07
3.9592211e-07
3.9592187e-07
3.9592194e-07
3.9592199e-07
3.9592203e-07
3.9592207e-07
3.9592209e-07
3.9592211e-07
3.9592178e-07
3.9592187e-07
3.9592194e-07
3.9592199e-07
3.9592204e-07
3.9592207e-07
3.9592209e-07
3.9592212e-07
3.9592179e-07
3.9592188e-07
3.9592195e-07
3.95922e-07
3.9592204e-07
3.9592207e-07
3.9592209e-07
3.9592212e-07
3.9592179e-07
3.9592188e-07
3.9592195e-07
3.95922e-07
3.9592204e-07
3.9592207e-07
3.959221e-07
3.9592212e-07
3.959218e-07
3.9592189e-07
3.9592195e-07
3.95922e-07
3.9592204e-07
3.9592207e-07
3.959221e-07
3.9592212e-07
3.9592181e-07
3.959219e-07
3.9592196e-07
3.9592201e-07
3.9592205e-07
3.9592207e-07
3.959221e-07
3.9592212e-07
3.9592072e-07
3.9592104e-07
3.9592127e-07
3.9592147e-07
3.9592163e-07
3.9592176e-07
3.9592186e-07
3.9592193e-07
3.9592118e-07
3.9592135e-07
3.959215e-07
3.9592163e-07
3.9592174e-07
3.9592183e-07
3.959219e-07
3.9592196e-07
3.9592132e-07
3.9592145e-07
3.9592156e-07
3.9592165e-07
3.9592174e-07
3.9592182e-07
3.9592188e-07
3.9592194e-07
3.9592199e-07
3.9592145e-07
3.9592155e-07
3.9592163e-07
3.9592171e-07
3.9592177e-07
3.9592183e-07
3.9592188e-07
3.9592193e-07
3.9592197e-07
3.9592201e-07
3.9592164e-07
3.959217e-07
3.9592176e-07
3.9592181e-07
3.9592185e-07
3.959219e-07
3.9592194e-07
3.9592197e-07
3.9592201e-07
3.9592173e-07
3.9592177e-07
3.9592181e-07
3.9592185e-07
3.9592189e-07
3.9592192e-07
3.9592195e-07
3.9592198e-07
3.9592201e-07
3.9592203e-07
3.9592183e-07
3.9592186e-07
3.9592189e-07
3.9592192e-07
3.9592195e-07
3.9592197e-07
3.9592199e-07
3.9592201e-07
3.9592203e-07
3.9592205e-07
3.9592191e-07
3.9592193e-07
3.9592195e-07
3.9592197e-07
3.9592199e-07
3.9592201e-07
3.9592202e-07
3.9592204e-07
3.9592206e-07
3.9592207e-07
3.9592197e-07
3.9592198e-07
3.95922e-07
3.9592201e-07
3.9592203e-07
3.9592204e-07
3.9592205e-07
3.9592206e-07
3.9592208e-07
3.9592201e-07
3.9592203e-07
3.9592204e-07
3.9592205e-07
3.9592206e-07
3.9592207e-07
3.9592208e-07
3.9592209e-07
3.9592209e-07
3.9592205e-07
3.9592206e-07
3.9592207e-07
3.9592207e-07
3.9592208e-07
3.9592209e-07
3.959221e-07
3.959221e-07
3.9592211e-07
3.9592208e-07
3.9592209e-07
3.9592209e-07
3.9592209e-07
3.959221e-07
3.9592211e-07
3.9592211e-07
3.9592212e-07
3.959221e-07
3.9592211e-07
3.9592211e-07
3.9592211e-07
3.9592212e-07
3.9592212e-07
3.9592213e-07
3.9592213e-07
3.9592212e-07
3.9592212e-07
3.9592213e-07
3.9592213e-07
3.9592213e-07
3.9592214e-07
3.9592214e-07
3.9576823e-07
3.9591195e-07
3.9591143e-07
3.9591097e-07
3.9591034e-07
3.9590944e-07
3.959169e-07
3.9591687e-07
3.9591676e-07
3.9591672e-07
3.9591678e-07
3.9591688e-07
3.9591706e-07
3.9591731e-07
3.9591761e-07
3.9591791e-07
3.9591891e-07
3.9591887e-07
3.9591881e-07
3.9591878e-07
3.9591874e-07
3.9591876e-07
3.9591879e-07
3.9591886e-07
3.9591897e-07
3.959191e-07
3.9591925e-07
3.9591942e-07
3.959196e-07
3.9591978e-07
3.9591993e-07
3.959199e-07
3.959199e-07
3.9591992e-07
3.9591995e-07
3.9591999e-07
3.9592005e-07
3.9592012e-07
3.9592019e-07
3.9592028e-07
3.9592037e-07
3.9592046e-07
3.9592056e-07
3.9592065e-07
3.9592062e-07
3.9592064e-07
3.9592066e-07
3.9592068e-07
3.9592071e-07
3.9592075e-07
3.9592079e-07
3.9592083e-07
3.9592088e-07
3.9592093e-07
3.9592098e-07
3.9592103e-07
3.9592108e-07
3.9592114e-07
3.9592111e-07
3.9592113e-07
3.9592114e-07
3.9592116e-07
3.9592118e-07
3.9592121e-07
3.9592123e-07
3.9592126e-07
3.9592129e-07
3.9592132e-07
3.9592134e-07
3.9592137e-07
3.959214e-07
3.9592143e-07
3.9592143e-07
3.9592144e-07
3.9592145e-07
3.9592147e-07
3.9592148e-07
3.9592149e-07
3.9592151e-07
3.9592152e-07
3.9592154e-07
3.9592156e-07
3.9592157e-07
3.9592159e-07
3.9592161e-07
3.9592162e-07
3.9592165e-07
3.9592165e-07
3.9592166e-07
3.9592167e-07
3.9592167e-07
3.9592168e-07
3.9592169e-07
3.959217e-07
3.9592171e-07
3.9592172e-07
3.9592173e-07
3.9592174e-07
3.9592175e-07
3.9592176e-07
3.9592179e-07
3.9592179e-07
3.959218e-07
3.959218e-07
3.959218e-07
3.9592181e-07
3.9592181e-07
3.9592182e-07
3.9592182e-07
3.9592183e-07
3.9592183e-07
3.9592184e-07
3.9592185e-07
3.9592185e-07
3.9592189e-07
3.9592189e-07
3.9592189e-07
3.9592189e-07
3.959219e-07
3.959219e-07
3.959219e-07
3.959219e-07
3.9592191e-07
3.9592191e-07
3.4809553e-07
3.3953747e-07
3.3855644e-07
3.4668074e-07
3.3256165e-07
3.6147097e-07
3.5832597e-07
3.7563031e-07
3.7941607e-07
3.8354354e-07
3.8601112e-07
3.9596319e-07
3.8780271e-07
3.8657787e-07
3.8807077e-07
3.9310964e-07
3.9196833e-07
3.9038067e-07
3.7999989e-07
3.9038788e-07
3.9437423e-07
3.9552359e-07
3.7700086e-07
3.8951016e-07
3.9518927e-07
3.9652656e-07
3.7500257e-07
3.8881781e-07
3.9560681e-07
3.9720637e-07
3.8822382e-07
3.9644786e-07
3.9811089e-07
3.8788274e-07
3.970083e-07
3.9884287e-07
3.8771135e-07
3.9779248e-07
3.996543e-07
3.8799381e-07
3.9849313e-07
4.003455e-07
3.8896329e-07
3.9940456e-07
4.009904e-07
3.9028138e-07
4.0035929e-07
4.0152793e-07
3.9195912e-07
4.0145118e-07
4.0200633e-07
3.9379271e-07
4.026214e-07
4.0245326e-07
3.9556034e-07
4.0374534e-07
4.0287189e-07
3.9728442e-07
4.048103e-07
4.033212e-07
3.9906045e-07
4.0565065e-07
4.0369927e-07
3.9578979e-07
3.955029e-07
3.9487235e-07
3.9367434e-07
3.9185462e-07
3.8960256e-07
3.8758525e-07
3.8647054e-07
3.8675269e-07
3.8847836e-07
3.9081412e-07
3.9274459e-07
3.9412599e-07
3.952514e-07
3.959108e-07
3.9590083e-07
3.9587679e-07
3.9582482e-07
3.9573319e-07
3.9560003e-07
3.9545464e-07
3.9534157e-07
3.9530761e-07
3.9536401e-07
3.9550922e-07
3.9569538e-07
3.9581687e-07
3.9587655e-07
3.9591814e-07
3.9591783e-07
3.9591714e-07
3.9591555e-07
3.9591254e-07
3.9590774e-07
3.9590199e-07
3.9589693e-07
3.9589465e-07
3.9589621e-07
3.9589925e-07
3.9590718e-07
3.9591639e-07
3.9591872e-07
3.9591988e-07
3.9591986e-07
3.9591985e-07
3.9591981e-07
3.9591974e-07
3.9591961e-07
3.9591944e-07
3.9591928e-07
3.959192e-07
3.9591925e-07
3.9591935e-07
3.9591947e-07
3.9591992e-07
3.9592019e-07
3.959207e-07
3.959207e-07
3.959207e-07
3.9592071e-07
3.9592071e-07
3.9592071e-07
3.9592072e-07
3.9592072e-07
3.9592073e-07
3.9592074e-07
3.9592075e-07
3.9592077e-07
3.9592079e-07
3.9592081e-07
3.9592116e-07
3.9592116e-07
3.9592117e-07
3.9592117e-07
3.9592117e-07
3.9592118e-07
3.9592118e-07
3.9592118e-07
3.9592119e-07
3.9592119e-07
3.959212e-07
3.9592121e-07
3.9592122e-07
3.9592122e-07
3.9592145e-07
3.9592145e-07
3.9592145e-07
3.9592145e-07
3.9592145e-07
3.9592145e-07
3.9592146e-07
3.9592146e-07
3.9592146e-07
3.9592147e-07
3.9592147e-07
3.9592147e-07
3.9592148e-07
3.9592148e-07
3.9592163e-07
3.9592163e-07
3.9592163e-07
3.9592163e-07
3.9592164e-07
3.9592164e-07
3.9592164e-07
3.9592164e-07
3.9592164e-07
3.9592164e-07
3.9592165e-07
3.9592165e-07
3.9592165e-07
3.9592165e-07
3.9592176e-07
3.9592176e-07
3.9592176e-07
3.9592176e-07
3.9592176e-07
3.9592176e-07
3.9592177e-07
3.9592177e-07
3.9592177e-07
3.9592177e-07
3.9592177e-07
3.9592177e-07
3.9592177e-07
3.9592177e-07
3.9592185e-07
3.9592185e-07
3.9592185e-07
3.9592185e-07
3.9592186e-07
3.9592186e-07
3.9592186e-07
3.9592186e-07
3.9592186e-07
3.9592186e-07
3.9592186e-07
3.9592186e-07
3.9592186e-07
3.9592186e-07
3.9592187e-07
3.9592178e-07
3.9592166e-07
3.959215e-07
3.9592125e-07
3.9592085e-07
3.9592021e-07
3.9592071e-07
3.9597466e-07
3.9704032e-07
3.9592186e-07
3.9592178e-07
3.9592166e-07
3.9592149e-07
3.9592125e-07
3.9592085e-07
3.9592021e-07
3.9592059e-07
3.9597342e-07
3.9700692e-07
3.9592186e-07
3.9592178e-07
3.9592166e-07
3.9592149e-07
3.9592124e-07
3.9592085e-07
3.959202e-07
3.9592051e-07
3.9597087e-07
3.9696769e-07
3.9592186e-07
3.9592178e-07
3.9592166e-07
3.9592149e-07
3.9592124e-07
3.9592085e-07
3.959202e-07
3.9592039e-07
3.9596716e-07
3.9691112e-07
3.9592186e-07
3.9592178e-07
3.9592166e-07
3.9592149e-07
3.9592124e-07
3.9592084e-07
3.9592019e-07
3.9592021e-07
3.9596224e-07
3.9683254e-07
3.9592186e-07
3.9592178e-07
3.9592166e-07
3.9592149e-07
3.9592124e-07
3.9592084e-07
3.9592018e-07
3.9592002e-07
3.9595668e-07
3.9673915e-07
3.9592186e-07
3.9592178e-07
3.9592166e-07
3.9592149e-07
3.9592124e-07
3.9592084e-07
3.9592017e-07
3.9591982e-07
3.9595064e-07
3.9663087e-07
3.9592186e-07
3.9592178e-07
3.9592166e-07
3.9592149e-07
3.9592124e-07
3.9592084e-07
3.9592016e-07
3.959196e-07
3.9594437e-07
3.9651206e-07
3.9592186e-07
3.9592178e-07
3.9592166e-07
3.9592149e-07
3.9592124e-07
3.9592083e-07
3.9592015e-07
3.9591937e-07
3.9593795e-07
3.9638856e-07
3.9592186e-07
3.9592178e-07
3.9592166e-07
3.9592149e-07
3.9592124e-07
3.9592083e-07
3.9592014e-07
3.9591919e-07
3.9593139e-07
3.9625894e-07
3.9592186e-07
3.9592178e-07
3.9592166e-07
3.9592149e-07
3.9592123e-07
3.9592083e-07
3.9592013e-07
3.9591897e-07
3.959246e-07
3.9613113e-07
3.9592186e-07
3.9592178e-07
3.9592166e-07
3.9592149e-07
3.9592123e-07
3.9592083e-07
3.9592012e-07
3.959188e-07
3.9592024e-07
3.9599023e-07
3.9592186e-07
3.9592178e-07
3.9592166e-07
3.9592149e-07
3.9592123e-07
3.9592083e-07
3.9592012e-07
3.9591847e-07
3.959129e-07
3.9586424e-07
3.9592186e-07
3.9592178e-07
3.9592166e-07
3.9592149e-07
3.9592123e-07
3.9592083e-07
3.9592014e-07
3.9591849e-07
3.9590423e-07
3.9572187e-07
3.9592044e-07
3.9592075e-07
3.9592098e-07
3.9592117e-07
3.9592131e-07
3.9591144e-07
3.9591927e-07
3.959195e-07
3.9592007e-07
3.9592047e-07
3.9592077e-07
3.95921e-07
3.9592118e-07
3.9592132e-07
3.9985425e-07
3.9538324e-07
3.9598777e-07
3.9591281e-07
3.9591922e-07
3.9591958e-07
3.9592012e-07
3.959205e-07
3.9592079e-07
3.9592102e-07
3.9592119e-07
3.9592133e-07
4.2734611e-07
3.8778692e-07
3.9871966e-07
3.9551175e-07
3.9596551e-07
3.9591431e-07
3.9591921e-07
3.9591966e-07
3.9592017e-07
3.9592054e-07
3.9592082e-07
3.9592103e-07
3.9592121e-07
3.9592134e-07
4.2042696e-07
3.89414e-07
3.9781973e-07
3.9562984e-07
3.9594854e-07
3.9591572e-07
3.9591924e-07
3.9591974e-07
3.9592022e-07
3.9592057e-07
3.9592084e-07
3.9592105e-07
3.9592122e-07
3.9592135e-07
4.1369559e-07
3.9069174e-07
3.9722332e-07
3.9572453e-07
3.959368e-07
3.959168e-07
3.9591928e-07
3.9591981e-07
3.9592027e-07
3.9592061e-07
3.9592087e-07
3.9592107e-07
3.9592124e-07
3.9592137e-07
4.0511795e-07
3.9283917e-07
3.9660858e-07
3.958207e-07
3.9592711e-07
3.9591776e-07
3.9591936e-07
3.9591989e-07
3.9592032e-07
3.9592065e-07
3.959209e-07
3.9592109e-07
3.9592125e-07
3.9592137e-07
3.9699984e-07
3.9553037e-07
3.9599366e-07
3.9590737e-07
3.9591924e-07
3.95919e-07
3.9591971e-07
3.9592017e-07
3.9592053e-07
3.959208e-07
3.9592101e-07
3.9592118e-07
3.9592132e-07
3.9592143e-07
3.9596852e-07
3.9589878e-07
3.9592139e-07
3.9591868e-07
3.9591946e-07
3.9591994e-07
3.9592032e-07
3.9592062e-07
3.9592086e-07
3.9592105e-07
3.9592121e-07
3.9592134e-07
3.9592145e-07
3.9592153e-07
3.9592031e-07
3.959199e-07
3.9591944e-07
3.9592005e-07
3.959203e-07
3.9592057e-07
3.9592079e-07
3.9592097e-07
3.9592113e-07
3.9592127e-07
3.9592138e-07
3.9592148e-07
3.9592156e-07
3.9592163e-07
3.9592025e-07
3.9592046e-07
3.959205e-07
3.959207e-07
3.9592085e-07
3.95921e-07
3.9592113e-07
3.9592125e-07
3.9592136e-07
3.9592145e-07
3.9592153e-07
3.959216e-07
3.9592166e-07
3.9592172e-07
3.9592088e-07
3.9592095e-07
3.9592103e-07
3.9592112e-07
3.9592121e-07
3.959213e-07
3.9592138e-07
3.9592146e-07
3.9592153e-07
3.9592159e-07
3.9592165e-07
3.959217e-07
3.9592175e-07
3.9592179e-07
3.9592126e-07
3.959213e-07
3.9592135e-07
3.959214e-07
3.9592145e-07
3.9592151e-07
3.9592156e-07
3.9592161e-07
3.9592166e-07
3.9592171e-07
3.9592175e-07
3.9592179e-07
3.9592182e-07
3.9592185e-07
3.959215e-07
3.9592153e-07
3.9592156e-07
3.9592159e-07
3.9592162e-07
3.9592166e-07
3.9592169e-07
3.9592173e-07
3.9592176e-07
3.9592179e-07
3.9592183e-07
3.9592185e-07
3.9592188e-07
3.9592191e-07
3.9592167e-07
3.9592168e-07
3.959217e-07
3.9592172e-07
3.9592174e-07
3.9592177e-07
3.9592179e-07
3.9592182e-07
3.9592184e-07
3.9592187e-07
3.9592189e-07
3.9592191e-07
3.9592193e-07
3.9592195e-07
3.9592178e-07
3.9592179e-07
3.9592181e-07
3.9592182e-07
3.9592183e-07
3.9592185e-07
3.9592187e-07
3.9592189e-07
3.9592191e-07
3.9592192e-07
3.9592194e-07
3.9592196e-07
3.9592197e-07
3.9592199e-07
3.9592187e-07
3.9592187e-07
3.9592188e-07
3.9592189e-07
3.959219e-07
3.9592192e-07
3.9592193e-07
3.9592194e-07
3.9592195e-07
3.9592197e-07
3.9592198e-07
3.95922e-07
3.9592201e-07
3.9592202e-07
3.9592225e-07
3.9592226e-07
3.9592226e-07
3.9592226e-07
3.9592226e-07
3.9592226e-07
3.9592226e-07
3.9592226e-07
3.9592226e-07
3.9592226e-07
3.9592225e-07
3.9592225e-07
3.9592226e-07
3.9592226e-07
3.9592226e-07
3.9592226e-07
3.9592226e-07
3.9592226e-07
3.9592226e-07
3.9592226e-07
3.9592226e-07
3.9592224e-07
3.9592225e-07
3.9592225e-07
3.9592226e-07
3.9592226e-07
3.9592226e-07
3.9592226e-07
3.9592226e-07
3.9592226e-07
3.9592226e-07
3.9592226e-07
3.9592226e-07
3.9592222e-07
3.9592224e-07
3.9592225e-07
3.9592225e-07
3.9592226e-07
3.9592226e-07
3.9592226e-07
3.9592226e-07
3.9592226e-07
3.9592226e-07
3.9592226e-07
3.9592226e-07
3.9592226e-07
3.9592222e-07
3.9592224e-07
3.9592225e-07
3.9592225e-07
3.9592226e-07
3.9592226e-07
3.9592226e-07
3.9592226e-07
3.9592226e-07
3.9592226e-07
3.9592226e-07
3.9592226e-07
3.9592226e-07
3.9592209e-07
3.9592222e-07
3.9592224e-07
3.9592225e-07
3.9592225e-07
3.9592226e-07
3.9592226e-07
3.9592226e-07
3.9592226e-07
3.9592226e-07
3.9592226e-07
3.9592226e-07
3.9592226e-07
3.9592226e-07
3.9592209e-07
3.9592222e-07
3.9592224e-07
3.9592225e-07
3.9592225e-07
3.9592226e-07
3.9592226e-07
3.9592226e-07
3.9592226e-07
3.9592226e-07
3.9592226e-07
3.9592226e-07
3.9592226e-07
3.9592226e-07
3.9592209e-07
3.9592222e-07
3.9592224e-07
3.9592225e-07
3.9592225e-07
3.9592226e-07
3.9592226e-07
3.9592226e-07
3.9592226e-07
3.9592226e-07
3.9592226e-07
3.9592226e-07
3.9592226e-07
3.9592226e-07
3.9592209e-07
3.9592222e-07
3.9592224e-07
3.9592225e-07
3.9592225e-07
3.9592226e-07
3.9592226e-07
3.9592226e-07
3.9592226e-07
3.9592226e-07
3.9592226e-07
3.9592226e-07
3.9592226e-07
3.9592226e-07
3.9592209e-07
3.9592222e-07
3.9592224e-07
3.9592225e-07
3.9592225e-07
3.9592226e-07
3.9592226e-07
3.9592226e-07
3.9592226e-07
3.9592226e-07
3.9592226e-07
3.9592226e-07
3.9592226e-07
3.9592226e-07
3.9592209e-07
3.9592222e-07
3.9592224e-07
3.9592225e-07
3.9592225e-07
3.9592226e-07
3.9592226e-07
3.9592226e-07
3.9592226e-07
3.9592226e-07
3.9592226e-07
3.9592226e-07
3.9592226e-07
3.9592209e-07
3.9592222e-07
3.9592224e-07
3.9592225e-07
3.9592225e-07
3.9592226e-07
3.9592226e-07
3.9592226e-07
3.9592226e-07
3.9592226e-07
3.9592226e-07
3.9592226e-07
3.9592209e-07
3.9592222e-07
3.9592224e-07
3.9592225e-07
3.9592225e-07
3.9592226e-07
3.9592226e-07
3.9592226e-07
3.9592226e-07
3.9592226e-07
3.9592226e-07
3.9592209e-07
3.9592222e-07
3.9592224e-07
3.9592225e-07
3.9592225e-07
3.9592226e-07
3.9592226e-07
3.9592226e-07
3.9592226e-07
3.9592226e-07
3.9592219e-07
3.9592224e-07
3.9592224e-07
3.9592224e-07
3.9592224e-07
3.9592224e-07
3.9592224e-07
3.9592224e-07
3.9592224e-07
3.9592224e-07
3.9592224e-07
3.9592224e-07
3.9592224e-07
3.9592224e-07
3.9592225e-07
3.9592225e-07
3.9592225e-07
3.9592225e-07
3.9592225e-07
3.9592225e-07
3.9592225e-07
3.9592225e-07
3.9592225e-07
3.9592225e-07
3.9592225e-07
3.9592225e-07
3.9592225e-07
3.9592225e-07
3.9592225e-07
3.9592225e-07
3.9592225e-07
3.9592225e-07
3.9592225e-07
3.9592225e-07
3.9592225e-07
3.9592225e-07
3.9592225e-07
3.9592225e-07
3.9592225e-07
3.9592225e-07
3.9592225e-07
3.9592224e-07
3.9592224e-07
3.9592224e-07
3.9592224e-07
3.9592224e-07
3.9592224e-07
3.9592224e-07
3.9592224e-07
3.9592224e-07
3.9592224e-07
3.9592224e-07
3.9592224e-07
3.9592224e-07
3.9592224e-07
3.9592219e-07
3.9592219e-07
3.9592219e-07
3.9592219e-07
3.9592219e-07
3.9592219e-07
3.9592219e-07
3.9592219e-07
3.9592219e-07
3.9592219e-07
3.9592219e-07
3.9592219e-07
3.9592219e-07
3.9592219e-07
3.9592226e-07
3.9592226e-07
3.9592226e-07
3.9592226e-07
3.9592226e-07
3.9592226e-07
3.9592226e-07
3.9592226e-07
3.9592226e-07
3.9592226e-07
3.9592226e-07
3.9592226e-07
3.9592226e-07
3.9592226e-07
3.9592226e-07
3.9592226e-07
3.9592226e-07
3.9592226e-07
3.9592226e-07
3.9592226e-07
3.9592226e-07
3.9592226e-07
3.9592226e-07
3.9592226e-07
3.9592226e-07
3.9592225e-07
3.9592226e-07
3.9592226e-07
3.9592226e-07
3.9592225e-07
3.9592226e-07
3.9592226e-07
3.9592225e-07
3.9592226e-07
3.9592226e-07
3.9592225e-07
3.9592225e-07
3.9592226e-07
3.9592225e-07
3.9592225e-07
3.9592225e-07
3.9592225e-07
3.9592215e-07
3.9592214e-07
3.9592213e-07
3.9592213e-07
3.9592212e-07
3.9592211e-07
3.959221e-07
3.959221e-07
3.9592223e-07
3.9592222e-07
3.9592222e-07
3.9592222e-07
3.9592222e-07
3.9592222e-07
3.9592224e-07
3.9592224e-07
3.9592224e-07
3.9592224e-07
3.9592224e-07
3.9592225e-07
3.9592225e-07
3.9592225e-07
3.9592225e-07
3.9592225e-07
3.9592225e-07
3.9592225e-07
3.9592226e-07
3.9592226e-07
3.9592226e-07
3.9592226e-07
3.9592226e-07
3.959222e-07
3.959222e-07
3.959222e-07
3.959222e-07
3.959222e-07
3.959222e-07
3.959222e-07
3.959222e-07
3.959222e-07
3.959222e-07
3.959222e-07
3.959222e-07
3.959222e-07
3.959222e-07
3.9592224e-07
3.9592224e-07
3.9592224e-07
3.959222e-07
3.959222e-07
3.959222e-07
3.9592226e-07
3.9592226e-07
3.9592226e-07
3.9592226e-07
3.9592226e-07
3.9592226e-07
3.9592226e-07
3.9592226e-07
3.9592226e-07
3.9592226e-07
)
;

boundaryField
{
    Side
    {
        type            empty;
    }
    Inlet
    {
        type            inletOutlet;
        inletValue      uniform 3.9592226e-07;
        value           nonuniform List<scalar> 
15
(
3.9592226e-07
3.9592226e-07
3.9592226e-07
3.9592226e-07
3.9592226e-07
3.9592226e-07
3.9592226e-07
3.9592226e-07
3.9592226e-07
3.9592226e-07
3.9592226e-07
3.9592226e-07
3.9592226e-07
3.9592226e-07
3.9592226e-07
)
;
    }
    Airfoil
    {
        type            nutUSpaldingWallFunction;
        value           nonuniform List<scalar> 0();
    }
    Outlet
    {
        type            zeroGradient;
    }
    Flap
    {
        type            nutUSpaldingWallFunction;
        value           nonuniform List<scalar> 0();
    }
    procBoundary5to4
    {
        type            processor;
        value           nonuniform List<scalar> 
189
(
3.9591979e-07
3.9591967e-07
3.9591955e-07
3.9591942e-07
3.9591928e-07
3.9591914e-07
3.9591899e-07
3.9591882e-07
3.9591865e-07
3.9591846e-07
3.9591821e-07
3.9591798e-07
3.9591773e-07
3.9591747e-07
3.9592208e-07
3.9592208e-07
3.9592208e-07
3.9592208e-07
3.9592208e-07
3.9592208e-07
3.9592206e-07
3.9592206e-07
3.9592206e-07
3.9592203e-07
3.9592203e-07
3.9592203e-07
3.9592199e-07
3.95922e-07
3.95922e-07
3.9592195e-07
3.9592195e-07
3.9592189e-07
3.9592189e-07
3.9592189e-07
3.9592208e-07
3.9592181e-07
3.9592182e-07
3.9592182e-07
3.9592184e-07
3.9592184e-07
3.9592184e-07
3.9592174e-07
3.9592175e-07
3.9592176e-07
3.9592177e-07
3.9592177e-07
3.9592164e-07
3.9592166e-07
3.9592167e-07
3.9592168e-07
3.959217e-07
3.959217e-07
3.9592034e-07
3.9592095e-07
3.9592095e-07
3.9592115e-07
3.9592115e-07
3.9592134e-07
3.9592157e-07
3.9592157e-07
3.9586682e-07
3.9584921e-07
3.958292e-07
3.9580303e-07
3.9580303e-07
3.9403945e-07
3.9591339e-07
3.959132e-07
3.9591293e-07
3.9591268e-07
3.9591243e-07
3.9591243e-07
3.9591725e-07
3.9591713e-07
3.9591705e-07
3.9591697e-07
3.9591697e-07
3.9429594e-07
3.9070562e-07
3.8413578e-07
3.7366395e-07
3.6060357e-07
3.6060357e-07
3.2048551e-07
3.1197373e-07
3.1524315e-07
3.1524315e-07
3.3584063e-07
3.722169e-07
3.9732159e-07
3.9732159e-07
4.0707236e-07
3.8639575e-07
3.8473863e-07
3.8473863e-07
3.6053132e-07
3.5724213e-07
3.5638701e-07
3.7199847e-07
3.7199847e-07
3.7233754e-07
3.7166298e-07
3.7273416e-07
3.7466878e-07
3.7700668e-07
3.7954045e-07
3.8206082e-07
3.8460528e-07
3.8715239e-07
3.8975279e-07
3.8975279e-07
3.9592131e-07
3.9592041e-07
3.9592073e-07
3.9592097e-07
3.9592116e-07
3.959213e-07
3.959213e-07
3.9591044e-07
3.9591935e-07
3.9591944e-07
3.9592002e-07
3.9592002e-07
4.0123344e-07
3.9524966e-07
3.9601711e-07
3.9601711e-07
4.3253204e-07
3.8628445e-07
3.8628445e-07
3.9592225e-07
3.9592225e-07
3.9592225e-07
3.9592226e-07
3.9592226e-07
3.9592224e-07
3.9592224e-07
3.9592222e-07
3.9592222e-07
3.9592209e-07
3.9592209e-07
3.9592209e-07
3.9592219e-07
3.9592219e-07
3.9592219e-07
3.9592219e-07
3.9592219e-07
3.9592219e-07
3.9592219e-07
3.9592219e-07
3.9592219e-07
3.9592219e-07
3.9592219e-07
3.9592219e-07
3.9592219e-07
3.9592223e-07
3.9592223e-07
3.9592226e-07
3.9592226e-07
3.9592226e-07
3.9592226e-07
3.9592226e-07
3.9592226e-07
3.9592226e-07
3.9592226e-07
3.9592226e-07
3.9592226e-07
3.9592226e-07
3.9592226e-07
3.9592226e-07
3.9592225e-07
3.9592225e-07
3.9592225e-07
3.9592225e-07
3.9592225e-07
3.9592225e-07
3.9592225e-07
3.9592223e-07
3.9592224e-07
3.9592224e-07
3.9592226e-07
3.9592226e-07
3.9592226e-07
3.9592226e-07
3.9592226e-07
3.9592226e-07
3.9592226e-07
3.9592226e-07
3.9592226e-07
)
;
    }
    procBoundary5to6
    {
        type            processor;
        value           nonuniform List<scalar> 
188
(
3.9592198e-07
3.9592198e-07
3.9592198e-07
3.9592197e-07
3.9592197e-07
3.9592197e-07
3.9592197e-07
3.9592197e-07
3.9592197e-07
3.9592197e-07
3.9592197e-07
3.9592197e-07
3.9592196e-07
3.9592196e-07
3.9592199e-07
3.9592201e-07
3.9592203e-07
3.9592204e-07
3.9592203e-07
3.9592203e-07
3.9592205e-07
3.9592207e-07
3.9592209e-07
3.9592209e-07
3.9592209e-07
3.9592211e-07
3.9592212e-07
3.9592212e-07
3.9592212e-07
3.9592214e-07
3.9592214e-07
3.959222e-07
3.959222e-07
3.959222e-07
3.9592214e-07
3.959222e-07
3.9592191e-07
3.9592192e-07
3.9592192e-07
3.9592192e-07
3.9592196e-07
3.9592196e-07
3.9592196e-07
3.9592196e-07
3.9592197e-07
3.9592197e-07
3.9592197e-07
3.9592197e-07
3.9592197e-07
3.9592191e-07
3.9592197e-07
3.9592192e-07
3.9592192e-07
3.9592192e-07
3.9592192e-07
3.9592192e-07
3.9592193e-07
3.9592193e-07
3.9592193e-07
3.9592193e-07
3.9592193e-07
3.9592193e-07
3.9592193e-07
3.9592193e-07
3.9592193e-07
3.9592193e-07
3.9592193e-07
3.9592193e-07
3.9592193e-07
3.9592193e-07
3.9592193e-07
3.9592193e-07
3.9592193e-07
3.9592193e-07
3.9592193e-07
3.9592193e-07
3.9592193e-07
3.9592193e-07
3.9592193e-07
3.9592216e-07
3.9592193e-07
3.9592194e-07
3.9592194e-07
3.9592195e-07
3.9592196e-07
3.9592197e-07
3.9592198e-07
3.9592199e-07
3.95922e-07
3.9592201e-07
3.9592202e-07
3.9592203e-07
3.9592204e-07
3.9592205e-07
3.9592216e-07
3.9592226e-07
3.9592226e-07
3.9592226e-07
3.9592226e-07
3.9592226e-07
3.9592226e-07
3.9592226e-07
3.9592226e-07
3.9592226e-07
3.9592225e-07
3.9592225e-07
3.9592225e-07
3.9592225e-07
3.9592225e-07
3.9592225e-07
3.9592226e-07
3.9592226e-07
3.9592226e-07
3.9592226e-07
3.9592226e-07
3.9592226e-07
3.9592226e-07
3.9592225e-07
3.9592226e-07
3.9592225e-07
3.9592225e-07
3.9592225e-07
3.9592225e-07
3.9592225e-07
3.9592225e-07
3.9592225e-07
3.9592225e-07
3.9592225e-07
3.9592225e-07
3.9592225e-07
3.9592225e-07
3.9592225e-07
3.9592225e-07
3.9592225e-07
3.9592226e-07
3.9592226e-07
3.9592226e-07
3.9592226e-07
3.9592226e-07
3.9592226e-07
3.9592226e-07
3.9592226e-07
3.9592226e-07
3.9592226e-07
3.9592226e-07
3.9592226e-07
3.9592226e-07
3.9592226e-07
3.9592226e-07
3.9592226e-07
3.9592226e-07
3.9592226e-07
3.9592216e-07
3.9592223e-07
3.9592223e-07
3.9592223e-07
3.9592224e-07
3.9592224e-07
3.9592225e-07
3.9592225e-07
3.9592225e-07
3.9592225e-07
3.9592226e-07
3.9592226e-07
3.9592226e-07
3.9592226e-07
3.9592226e-07
3.9592226e-07
3.9592226e-07
3.9592224e-07
3.9592224e-07
3.9592224e-07
3.9592224e-07
3.9592224e-07
3.9592224e-07
3.9592224e-07
3.9592224e-07
3.9592224e-07
3.9592224e-07
3.9592224e-07
3.9592225e-07
3.9592225e-07
3.9592224e-07
3.9592225e-07
3.9592224e-07
3.9592224e-07
3.9592224e-07
3.959222e-07
)
;
    }
}


// ************************************************************************* //
