/*--------------------------------*- C++ -*----------------------------------*\
| =========                 |                                                 |
| \\      /  F ield         | OpenFOAM: The Open Source CFD Toolbox           |
|  \\    /   O peration     | Version:  2206                                  |
|   \\  /    A nd           | Website:  www.openfoam.com                      |
|    \\/     M anipulation  |                                                 |
\*---------------------------------------------------------------------------*/
FoamFile
{
    version     2.0;
    format      ascii;
    arch        "LSB;label=32;scalar=64";
    class       surfaceScalarField;
    location    "0.02";
    object      phi;
}
// * * * * * * * * * * * * * * * * * * * * * * * * * * * * * * * * * * * * * //

dimensions      [1 0 -1 0 0 0 0];

oriented        oriented;

internalField   nonuniform List<scalar> 
2596
(
-0.0023038659
0.0016609819
0.002347576
-0.0022601559
0.0016609819
-0.0022164458
0.0016609819
-0.0021727358
0.0016609819
-0.0021290257
0.0016609819
-0.0020853157
0.0016609819
-0.0020416056
0.0016609819
-0.0019978956
0.0016609819
-0.0019541855
0.0016609819
-0.0019104755
0.0016609819
-0.0018667654
0.0016609819
-0.0018230554
0.0016609819
-0.0017793453
0.0016609819
0.0016609819
-0.0017356353
-0.0023038659
0.0016172718
0.002347576
-0.0022601559
0.0016172718
-0.0022164458
0.0016172718
-0.0021727358
0.0016172718
-0.0021290257
0.0016172718
-0.0020853157
0.0016172718
-0.0020416056
0.0016172718
-0.0019978956
0.0016172718
-0.0019541855
0.0016172718
-0.0019104755
0.0016172718
-0.0018667654
0.0016172718
-0.0018230554
0.0016172718
-0.0017793453
0.0016172718
0.0016172718
-0.0017356353
-0.0023038659
0.0015735618
0.0023475759
-0.0022601558
0.0015735618
-0.0022164458
0.0015735618
-0.0021727357
0.0015735618
-0.0021290257
0.0015735618
-0.0020853156
0.0015735618
-0.0020416056
0.0015735618
-0.0019978955
0.0015735618
-0.0019541855
0.0015735618
-0.0019104754
0.0015735618
-0.0018667654
0.0015735618
-0.0018230553
0.0015735618
-0.0017793453
0.0015735618
0.0015735618
-0.0017356352
-0.0023038659
0.0015298517
0.002347576
-0.0022601559
0.0015298517
-0.0022164458
0.0015298517
-0.0021727358
0.0015298517
-0.0021290257
0.0015298517
-0.0020853157
0.0015298517
-0.0020416056
0.0015298517
-0.0019978956
0.0015298517
-0.0019541855
0.0015298517
-0.0019104755
0.0015298517
-0.0018667654
0.0015298517
-0.0018230554
0.0015298517
-0.0017793453
0.0015298517
0.0015298517
-0.0017356353
-0.0023038659
0.0014861417
0.002347576
-0.0022601559
0.0014861417
-0.0022164458
0.0014861417
-0.0021727358
0.0014861417
-0.0021290257
0.0014861417
-0.0020853157
0.0014861417
-0.0020416056
0.0014861417
-0.0019978956
0.0014861417
-0.0019541855
0.0014861417
-0.0019104755
0.0014861417
-0.0018667654
0.0014861417
-0.0018230554
0.0014861417
-0.0017793453
0.0014861417
0.0014861417
-0.0017356353
-0.0023038659
0.0014424316
0.0023475759
-0.0022601558
0.0014424316
-0.0022164458
0.0014424316
-0.0021727357
0.0014424316
-0.0021290257
0.0014424316
-0.0020853156
0.0014424316
-0.0020416056
0.0014424316
-0.0019978955
0.0014424316
-0.0019541855
0.0014424316
-0.0019104754
0.0014424316
-0.0018667654
0.0014424316
-0.0018230553
0.0014424316
-0.0017793453
0.0014424316
0.0014424316
-0.0017356352
-0.0023038659
0.0013987216
0.002347576
-0.0022601559
0.0013987216
-0.0022164458
0.0013987216
-0.0021727358
0.0013987216
-0.0021290257
0.0013987216
-0.0020853157
0.0013987216
-0.0020416056
0.0013987216
-0.0019978956
0.0013987216
-0.0019541855
0.0013987216
-0.0019104755
0.0013987216
-0.0018667654
0.0013987216
-0.0018230554
0.0013987216
-0.0017793453
0.0013987216
0.0013987216
-0.0017356353
-0.0023038659
0.002347576
-0.0022601559
-0.0022164458
-0.0021727358
-0.0021290257
-0.0020853157
-0.0020416056
-0.0019978956
-0.0019541855
-0.0019104755
-0.0018667654
-0.0018230554
-0.0017793453
-0.0017356353
0.014258997
0.0015672326
0.01429178
0.0015672325
0.014324562
-0.001600015
0.0015672325
0.014357345
-0.0016000151
0.0015672326
0.014390127
-0.001600015
0.0015672325
0.01442291
-0.001600015
0.0015672324
0.014455692
-0.0016000151
0.0015672325
0.014488475
-0.001600015
0.0015672326
-0.001600015
0.014521257
0.0015672325
0.014324562
0.014357345
0.014390127
-0.0016327975
0.01442291
-0.0016327975
0.014455692
-0.0016327976
0.014488475
-0.0016327975
-0.0016327976
0.014521257
0.014390127
0.01442291
0.014455692
-0.0016655801
0.014488475
-0.0016655801
-0.0016655802
0.014521257
0.014455692
0.014488475
-0.0016983627
-0.0016983626
0.014521257
0.014488475
0.014521257
0.00015584841
0.014398825
0.00027828061
0.014398825
0.00040071276
0.014398825
0.00052314496
0.014398825
0.00064557719
0.014398825
0.014398825
0.00076800939
0.00015584846
0.014276393
0.00027828069
0.014276393
0.00040071289
0.014276393
0.00052314504
0.014276393
0.00064557719
0.014276393
0.014276393
0.00076800934
0.00015584841
0.014153961
0.00027828061
0.014153961
0.00040071276
0.014153961
0.00052314504
0.014153961
0.00064557719
0.014153961
0.014153961
0.00076800939
0.00015584854
0.014031529
0.00027828061
0.014031529
0.00040071289
0.014031529
0.00052314491
0.014031529
0.00064557719
0.014031529
0.014031529
0.00076800943
0.00015584841
0.013909096
0.00027828061
0.013909096
0.00040071276
0.013909096
0.00052314504
0.013909096
0.00064557724
0.013909096
0.013909096
0.00076800939
3.3416176e-05
0.013786664
0.00015584846
0.013786664
0.00027828065
0.013786664
0.00040071285
0.013786664
0.00052314504
0.013786664
0.00064557719
0.013786664
0.013786664
0.00076800934
3.3416262e-05
0.013664232
0.00015584841
0.013664232
0.00027828061
0.013664232
0.0004007128
0.013664232
0.00052314496
0.013664232
0.00064557719
0.013664232
0.013664232
0.00076800939
3.3416262e-05
0.0135418
0.00015584846
0.0135418
0.00027828061
0.0135418
0.00040071285
0.0135418
0.000523145
0.0135418
0.00064557719
0.0135418
0.0135418
0.00076800939
3.3416262e-05
0.013419368
0.00015584841
0.013419368
0.00027828061
0.013419368
0.00040071276
0.013419368
0.00052314504
0.013419368
0.00064557719
0.013419368
0.013419368
0.00076800934
-8.901589e-05
0.013296935
3.3416306e-05
0.013296935
0.00015584846
0.013296935
0.00027828069
0.013296935
0.00040071289
0.013296935
0.00052314504
0.013296935
0.00064557711
0.013296936
0.013296935
0.00076800939
-8.9015975e-05
0.013174503
3.3416176e-05
0.013174503
0.00015584841
0.013174503
0.00027828061
0.013174503
0.00040071276
0.013174503
0.00052314496
0.013174503
0.00064557724
0.013174503
0.013174503
0.00076800943
-8.901589e-05
0.013052071
3.3416262e-05
0.013052071
0.00015584846
0.013052071
0.00027828061
0.013052071
0.00040071276
0.013052071
0.000523145
0.013052071
0.00064557719
0.013052071
0.013052071
0.00076800939
-8.9016019e-05
0.012929639
3.3416262e-05
0.012929639
0.00015584841
0.012929639
0.00027828061
0.012929639
0.00040071289
0.012929639
0.00052314504
0.012929639
0.00064557719
0.012929639
0.012929639
0.00076800934
-8.901589e-05
0.012807207
3.3416262e-05
0.012807207
0.00015584846
0.012807207
0.00027828069
0.012807207
0.00040071276
0.012807207
0.00052314496
0.012807207
0.00064557719
0.012807207
0.012807207
0.00076800939
0.012994489
0.0023007554
0.01304131
0.0023007553
0.01308813
0.0023007553
0.013134951
0.0023007553
0.013181772
0.0023007553
0.013228592
0.0023007553
0.013275413
0.0023007553
0.0023007554
0.012994489
0.0022539347
0.01304131
0.0022539347
0.01308813
0.0022539347
0.013134951
0.0022539348
0.013181772
0.0022539348
0.013228592
0.0022539347
0.013275413
0.0022539348
0.0022539347
0.012947669
0.0022071141
0.012994489
0.0022071141
0.01304131
0.0022071141
0.01308813
0.0022071141
0.013134951
0.0022071141
0.013181772
0.0022071141
0.013228592
0.0022071141
0.013275413
0.0022071141
0.0022071141
0.012900848
0.0021602935
0.012947669
0.0021602935
0.012994489
0.0021602935
0.01304131
0.0021602935
0.01308813
0.0021602935
0.013134951
0.0021602935
0.013181772
0.0021602935
0.013228592
0.0021602935
0.013275413
0.0021602935
0.012900848
0.0021134729
0.012947669
0.0021134729
0.012994489
0.0021134729
0.01304131
0.0021134729
0.01308813
0.0021134729
0.013134951
0.0021134729
0.013181772
0.0021134729
0.013228592
0.0021134729
0.0021134729
0.012854027
0.0020666523
0.012900848
0.0020666523
0.012947669
0.0020666523
0.012994489
0.0020666523
0.01304131
0.0020666523
0.01308813
0.0020666523
0.013134951
0.0020666523
0.013181772
0.0020666523
0.013228592
0.0020666523
0.0020666523
0.012854027
0.0020198317
0.012900848
0.0020198317
0.012947669
0.0020198317
0.012994489
0.0020198317
0.01304131
0.0020198317
0.01308813
0.0020198317
0.013134951
0.0020198317
0.013181772
0.0020198317
0.013228592
0.0020198317
0.0020198317
0.012854027
0.0019730111
0.012900848
0.0019730111
0.012947669
0.0019730112
0.012994489
0.0019730111
0.01304131
0.0019730111
0.01308813
0.0019730112
0.013134951
0.0019730111
0.013181772
0.0019730111
0.013228592
0.0019730111
0.012854027
0.0019261905
0.012900848
0.0019261904
0.012947669
0.0019261906
0.012994489
0.0019261904
0.01304131
0.0019261905
0.01308813
0.0019261904
0.013134951
0.0019261906
0.013181772
0.0019261905
0.0019261904
0.012854027
0.0018793699
0.012900848
0.0018793699
0.012947669
0.0018793699
0.012994489
0.0018793699
0.01304131
0.0018793699
0.01308813
0.0018793699
0.013134951
0.0018793699
0.013181772
0.0018793699
0.0018793699
0.012854027
0.0018325493
0.012900848
0.0018325493
0.012947669
0.0018325492
0.012994489
0.0018325494
0.01304131
0.0018325492
0.01308813
0.0018325493
0.013134951
0.0018325492
0.013181772
0.0018325493
0.012854027
0.0017857287
0.012900848
0.0017857286
0.012947669
0.0017857286
0.012994489
0.0017857286
0.01304131
0.0017857287
0.01308813
0.0017857286
0.013134951
0.0017857286
0.0017857287
0.012854027
0.001738908
0.012900848
0.0017389082
0.012947669
0.001738908
0.012994489
0.001738908
0.01304131
0.0017389081
0.01308813
0.0017389081
0.013134951
0.001738908
0.012854027
0.0016920874
0.012900848
0.0016920875
0.012947669
0.0016920874
0.012994489
0.01304131
0.01308813
0.0032461267
-0.0008644336
-0.0011201495
0.0031863191
-0.0010585906
0.0031863181
-0.00099702689
0.0031863168
-0.00093546073
0.0031863149
0.0031863135
-0.00087393193
-0.0014279029
0.003124774
-0.0013663564
0.0031247739
-0.0013048099
0.003124774
-0.0012432634
0.0031247739
-0.0011817169
0.003124774
-0.0011201703
0.0031247739
-0.0010586237
0.0031247739
-0.00099707684
0.0031247739
-0.00093553003
0.0031247739
0.0031247739
-0.00087398399
-0.0016740888
0.0030632275
-0.0016125423
0.0030632274
-0.0015509958
0.0030632275
-0.0014894493
0.0030632275
-0.0014279029
0.0030632275
-0.0013663564
0.0030632275
-0.0013048099
0.0030632275
-0.0012432635
0.0030632275
-0.001181717
0.0030632275
-0.0011201705
0.0030632274
-0.0010586241
0.0030632275
-0.00099707761
0.0030632275
-0.00093553111
0.0030632275
0.0030632275
-0.00087398466
-0.0016740888
0.003001681
-0.0016125423
0.003001681
-0.0015509958
0.003001681
-0.0014894494
0.003001681
-0.0014279029
0.003001681
-0.0013663564
0.003001681
-0.00130481
0.003001681
-0.0012432635
0.003001681
-0.001181717
0.003001681
-0.0011201706
0.003001681
-0.0010586241
0.003001681
-0.00099707758
0.003001681
-0.00093553117
0.003001681
0.003001681
-0.00087398466
-0.0016740888
0.0029401345
-0.0016125424
0.0029401346
-0.0015509958
0.0029401345
-0.0014894494
0.0029401345
-0.0014279029
0.0029401345
-0.0013663564
0.0029401345
-0.00130481
0.0029401345
-0.0012432635
0.0029401345
-0.001181717
0.0029401345
-0.0011201706
0.0029401346
-0.0010586241
0.0029401345
-0.00099707763
0.0029401345
-0.00093553112
0.0029401345
0.0029401345
-0.00087398466
-0.0016740888
0.0028785881
-0.0016125423
0.0028785881
-0.0015509958
0.0028785881
-0.0014894493
0.002878588
-0.0014279029
0.0028785881
-0.0013663564
0.0028785881
-0.00130481
0.0028785881
-0.0012432635
0.0028785881
-0.001181717
0.0028785881
-0.0011201705
0.0028785881
-0.001058624
0.002878588
-0.00099707758
0.0028785881
-0.00093553112
0.0028785881
0.0028785881
-0.00087398466
-0.0016740888
0.0028170416
-0.0016125423
0.0028170416
-0.0015509958
0.0028170416
-0.0014894494
0.0028170416
-0.0014279029
0.0028170416
-0.0013663564
0.0028170416
-0.00130481
0.0028170416
-0.0012432635
0.0028170416
-0.001181717
0.0028170416
-0.0011201706
0.0028170416
-0.0010586241
0.0028170416
-0.00099707763
0.0028170416
-0.00093553112
0.0028170416
0.0028170416
-0.00087398466
-0.0016740888
0.0027554952
-0.0016125423
0.0027554951
-0.0015509958
0.0027554951
-0.0014894494
0.0027554952
-0.0014279029
0.0027554951
-0.0013663564
0.0027554951
-0.00130481
0.0027554951
-0.0012432635
0.0027554951
-0.001181717
0.0027554951
-0.0011201705
0.0027554952
-0.0010586241
0.0027554951
-0.00099707758
0.0027554951
-0.00093553117
0.0027554952
0.0027554951
-0.00087398466
-0.0016740888
0.0026939487
-0.0016125423
0.0026939487
-0.0015509958
0.0026939487
-0.0014894493
0.0026939487
-0.0014279029
0.0026939487
-0.0013663565
0.0026939487
-0.00130481
0.0026939487
-0.0012432635
0.0026939487
-0.001181717
0.0026939487
-0.0011201705
0.0026939487
-0.0010586241
-0.00099707763
-0.00093553112
-0.00087398466
-0.0016740888
-0.0016125423
-0.0015509958
-0.0014894494
-0.0014279029
-0.0013663564
-0.0013048099
-0.0012432635
-0.001181717
-2.0738689e-05
0.001594989
-3.1700322e-05
0.0015319665
-8.9415075e-05
0.0014917476
-0.0013778225
-0.00020875129
0.0014998558
-0.00018721714
-0.0014824241
-0.00035752696
0.0015795436
-0.00041174452
-0.0016439873
-0.00047006934
0.0017008715
-0.00056601533
-0.0017693229
-0.00052287803
0.0017996497
-0.0017693922
-0.0006172719
-0.00072318878
-0.0018482202
-0.00053994831
0.0018626158
-0.0018644944
-0.00061664664
-0.00070039298
-0.001908949
-0.0005395385
0.0019103185
-0.0019339503
-0.00059157134
-0.00065055063
0.00026467091
-0.0007340795
0.00028105876
-0.00066069555
0.00029614947
-0.00060374742
-0.00055460669
0.00031283759
0.00026563333
-0.00074506137
0.00028262721
-0.00067270716
0.00029802007
-0.0006168131
-0.00056991516
0.00031458089
0.00026647937
0.00028400277
-0.00068454854
0.00029972949
-0.000629889
-0.00058509502
0.00031623547
0.00028517773
-0.00069658817
0.00030125968
-0.00064315992
-0.00060025253
0.00031775525
0.00028613643
-0.00070855311
0.00030255692
-0.00065656244
-0.00061542457
0.00031906406
0.00028686938
-0.00072039739
0.00030359897
-0.00067004707
-0.00063066938
0.00032012234
0.00028738455
-0.00073210257
0.00030437992
-0.00068353703
-0.00064599466
0.00032091782
0.00028768656
-0.0007435837
0.00030490607
-0.00069691528
-0.00066136787
0.00032145741
0.00028777291
-0.00075477168
0.00030517972
-0.00071009351
-0.00067676217
0.00032175085
0.00028765096
-0.00076577838
0.00030520639
-0.00072315537
-0.00069231557
0.00032181251
0.00028737819
-0.00077701202
0.00030503212
-0.00073648735
-0.00070834275
0.00032169169
0.00028707876
-0.00078903938
0.00030477468
-0.00075069029
-0.00072530344
0.00032150213
0.0002868539
-0.00080251272
0.00030455801
-0.00076623745
-0.00074335049
0.00032136625
0.0002866837
-0.00081779622
0.0003043636
-0.00078334654
0.00032124986
-0.00076210718
-0.00080878377
0.0018205939
-0.00073401473
0.0018195619
-0.00063859769
0.0018173905
-0.000522914
0.0018135795
-0.00039908728
0.001808059
-0.00029019999
0.0018014135
-0.00022542871
0.0017949424
-0.00022984893
0.0017904192
-0.00030782742
0.0017896374
-0.00042182025
0.0017936764
-0.00048755934
0.0018015864
-0.00047087947
0.0018102648
-0.00040550438
0.0018169613
0.001821542
-0.00031238132
-0.00082795142
0.0017751545
-0.00078185257
0.0017751498
-0.0007355829
0.001775139
-0.00068908255
0.0017751171
-0.00064238193
0.0017750806
-0.00059566226
0.0017750306
-0.00054923383
0.0017749762
-0.00050339187
0.0017749336
-0.00045690647
0.0017749198
-0.0004049958
0.0017749049
-0.00036171396
0.0017747533
-0.00032330652
0.0017750537
-0.00027708692
0.001775128
0.0017750276
-0.00023111089
-0.00082804423
0.001729217
-0.00078210317
0.001729217
-0.00073616007
0.0017292168
-0.00069021371
0.0017292166
-0.00064426338
0.0017292161
-0.00059831022
0.0017292154
-0.00055235794
0.0017292145
-0.00050641182
0.0017292138
-0.00046045529
0.0017292134
-0.00041370022
0.0017292129
-0.00036699994
0.0017291904
-0.00032179703
0.0017291901
-0.00027663705
0.0017292126
0.001729217
-0.00023080593
-0.00082804507
0.0016832774
-0.00078210543
0.0016832774
-0.00073616581
0.0016832774
-0.00069022614
0.0016832774
-0.00064428646
0.0016832774
-0.00059834671
0.0016832774
-0.00055240706
0.0016832774
-0.00050646736
0.0016832774
-0.00046052767
0.0016832774
-0.00041458575
0.0016832774
-0.00036858845
0.0016832773
-0.00032261717
0.0016832758
-0.000276732
0.0016832764
0.0016832774
-0.00023082481
-0.00082804508
0.0016373378
-0.00078210545
0.0016373378
-0.00073616587
0.0016373378
-0.00069022628
0.0016373378
-0.00064428665
0.0016373378
-0.00059834707
0.0016373378
-0.00055240743
0.0016373378
-0.00050646781
0.0016373378
-0.00046052823
0.0016373378
-0.00041458863
0.0016373378
-0.00036864888
0.0016373378
-0.00032270916
0.0016373378
-0.00027676958
0.0016373378
0.0016373378
-0.00023083015
-0.00082804503
0.0015913982
-0.0007821055
0.0015913982
-0.00073616586
0.0015913982
-0.00069022624
0.0015913982
-0.00064428665
0.0015913982
-0.00059834707
0.0015913982
-0.00055240745
0.0015913982
-0.00050646785
0.0015913982
-0.00046052822
0.0015913982
-0.00041458865
0.0015913982
-0.00036864905
0.0015913982
-0.00032270943
0.0015913982
-0.00027676981
0.0015913982
0.0015913982
-0.00023083028
-0.00082804509
0.0015454586
-0.00078210545
0.0015454586
-0.00073616587
0.0015454586
-0.00069022623
0.0015454586
-0.00064428665
0.0015454586
-0.00059834702
0.0015454586
-0.00055240744
0.0015454586
-0.00050646786
0.0015454586
-0.00046052828
0.0015454586
-0.00041458865
0.0015454586
-0.00036864904
0.0015454586
-0.00032270943
0.0015454586
-0.00027676985
0.0015454586
0.0015454586
-0.00023083023
-0.00082804503
0.001499519
-0.00078210546
0.001499519
-0.00073616582
0.001499519
-0.00069022628
0.001499519
-0.00064428665
0.001499519
-0.00059834708
0.001499519
-0.00055240744
0.001499519
-0.00050646785
0.001499519
-0.00046052823
0.001499519
-0.0004145886
0.001499519
-0.00036864906
0.001499519
-0.00032270943
0.001499519
-0.00027676985
0.001499519
0.001499519
-0.00023083023
-0.00082804508
0.0014535794
-0.00078210545
0.0014535794
-0.00073616587
0.0014535794
-0.00069022624
0.0014535794
-0.00064428665
0.0014535794
-0.00059834702
0.0014535794
-0.00055240745
0.0014535794
-0.00050646782
0.0014535794
-0.00046052822
0.0014535794
-0.00041458864
0.0014535794
-0.00036864902
0.0014535794
-0.00032270943
0.0014535794
-0.00027676985
0.0014535795
0.0014535794
-0.00023083028
-0.00082804508
-0.00078210545
-0.00073616586
-0.00069022628
-0.00064428665
-0.00059834707
-0.00055240744
-0.00050646785
-0.00046052828
-0.00041458865
-0.00036864906
-0.0003227095
-0.00027676981
-0.00023083023
-0.00089605604
0.0010831762
-0.0011487413
-0.00083049098
0.0010831762
-0.0011487413
-0.00076492583
0.0010831761
-0.0011487413
-0.00069936077
0.0010831762
-0.0011487413
-0.00063379575
0.0010831762
-0.0011487413
-0.00056823046
0.0010831762
-0.0011487413
-0.00050266147
0.0010831757
-0.0011487412
-0.0004370956
0.0010831981
-0.0011487669
-0.00037275676
0.0010834128
-0.0011488325
0.0010806247
-0.0011442807
-0.00089605596
0.0010176111
-0.00083049098
0.0010176112
-0.00076492591
0.0010176111
-0.00069936077
0.0010176111
-0.00063379578
0.0010176112
-0.00056823038
0.0010176111
-0.00050266498
0.0010176106
-0.00043710594
0.0010176217
-0.00037283018
0.0010178778
0.0010186651
-0.00089605604
0.00095204602
-0.00083049089
0.00095204606
-0.00076492583
0.00095204602
-0.00069936076
0.00095204602
-0.00063379569
0.00095204615
-0.0005682306
0.000952046
-0.00050266571
0.00095204571
-0.0004371076
0.00095204608
-0.00037285052
0.00095215953
0.00095844106
-0.00089605604
0.00088648104
-0.00083049098
0.000886481
-0.00076492591
0.00088648095
-0.00069936085
0.00088648095
-0.0006337957
0.000886481
-0.00056823064
0.00088648094
-0.00050266567
0.0008864808
-0.00043710741
0.00088648114
-0.00037284148
0.00088660398
0.00089888202
-0.00089605596
0.00082091589
-0.00083049089
0.00082091593
-0.00076492583
0.00082091589
-0.00069936076
0.00082091589
-0.0006337957
0.00082091593
-0.00056823064
0.00082091588
-0.00050266565
0.00082091589
-0.00043710692
0.00082091662
-0.00037280779
0.00082106601
0.00083977485
-0.00089605604
0.00075535083
-0.00083049098
0.00075535087
-0.00076492591
0.00075535083
-0.00069936076
0.00075535074
-0.0006337957
0.00075535087
-0.00056823064
0.00075535083
-0.00050266564
0.0007553509
-0.00043710627
0.00075535206
-0.00037274763
0.00075551997
0.00078128508
-0.00089605604
0.00068978576
-0.00083049089
0.00068978572
-0.00076492583
0.00068978576
-0.00069936085
0.00068978576
-0.0006337957
0.00068978572
-0.00056823064
0.00068978577
-0.00050266563
0.00068978588
-0.00043710552
0.00068978766
-0.00037266119
0.00068997024
0.00072305657
-0.00089605596
0.00062422061
-0.00083049098
0.00062422074
-0.00076492583
0.00062422061
-0.00069936076
0.0006242207
-0.00063379579
0.00062422074
-0.00056823064
0.00062422062
-0.00050266561
0.00062422085
-0.00043710462
0.00062422299
-0.00037255144
0.00062442254
0.00066489122
-0.00089605604
0.00055865564
-0.00083049089
0.00055865559
-0.00076492591
0.00055865564
-0.00069936076
0.00055865555
-0.0006337957
0.00055865567
-0.00056823063
0.00055865554
-0.0005026656
0.00055865584
-0.00043710384
0.00055865815
-0.00037242266
0.00055886877
0.00060667307
-0.00089605604
0.00049309057
-0.00083049098
0.00049309053
-0.00076492583
0.00049309049
-0.00069936085
0.00049309057
-0.00063379569
0.00049309052
-0.00056823057
0.00049309041
-0.00050266556
0.00049309071
-0.00043710299
0.00049309479
-0.00037228071
0.00049330928
0.00054828585
-0.00089605596
0.00042752542
-0.00083049089
0.00042752547
-0.00076492591
0.00042752551
-0.00069936076
0.00042752542
-0.0006337957
0.00042752546
-0.00056823053
0.00042752527
-0.00050266521
0.00042752468
-0.00043710212
0.00042753025
-0.00037213251
0.00042775296
0.00048957928
-0.00089605604
0.00036196036
-0.00083049098
0.0003619604
-0.00076492583
0.00036196036
-0.00069936076
0.00036196036
-0.0006337957
0.0003619604
-0.00056823056
0.00036196024
-0.00050266448
0.00036195775
-0.00043709997
0.00036196244
-0.00037198389
0.00036219843
0.00043055143
-0.00089605604
0.0002963953
-0.00083049098
0.00029639534
-0.00076492591
0.0002963953
-0.00069936085
0.0002963953
-0.00063379579
0.00029639534
-0.00056823058
0.00029639526
-0.000502661
0.00029639139
-0.00043709608
0.00029638543
-0.00037184139
0.0002967316
0.00037094595
-0.00089605596
-0.00083049089
-0.00076492583
-0.00069936077
-0.0006337957
-0.00056823063
-0.00050266116
-0.00043704303
-0.00037171246
-0.00032073578
0.0079586867
-0.00027956896
0.0079586867
-0.00023840222
0.0079586867
-0.00019723544
0.0079586868
0.0079586867
-0.00015606871
-0.00048538241
0.007917476
-0.00044423636
0.0079175224
-0.00040306919
0.0079175198
-0.00036190252
0.00791752
-0.00032073574
0.0079175199
-0.000279569
0.0079175199
-0.00023840222
0.0079175199
-0.00019723544
0.00791752
0.0079175199
-0.00015606866
-0.00061462344
0.0079370756
-0.00056610844
0.0078706245
-0.00052665824
0.0078769359
-0.00048538847
0.0078763183
-0.00044423639
0.0078763552
-0.00040306925
0.0078763531
-0.00036190252
0.0078763532
-0.00032073574
0.0078763532
-0.00027956896
0.0078763532
-0.00023840218
0.0078763532
-0.00019723549
0.0078763533
0.0078763532
-0.00015606871
-0.00071022673
0.0084644263
-0.00062817713
0.0076594902
-0.00061379964
0.0078802517
-0.00056661321
0.0078308266
-0.0005266465
0.007835623
-0.00048539312
0.0078351601
-0.00044423638
0.0078351879
-0.00040306927
0.0078351864
-0.00036190252
0.0078351865
-0.00032073574
0.0078351864
-0.000279569
0.0078351864
-0.00023840222
0.0078351864
-0.00019723544
0.0078351865
0.0078351864
-0.00015606866
-0.00069897357
0.0082785257
-0.00063552014
0.0076585398
-0.00061281018
0.0078259366
-0.00056699598
0.0077908391
-0.00052662978
0.0077943278
-0.00048539652
0.0077940009
-0.00044423631
0.0077940207
-0.00040306923
0.0077940196
-0.00036190252
0.0077940197
-0.00032073578
0.0077940196
-0.000279569
0.0077940196
-0.00023840222
0.0077940196
-0.00019723544
0.0077940197
0.0077940196
-0.00015606871
-0.0006922197
0.0080998102
-0.00064102949
0.0076523681
-0.00061183078
0.0077743184
-0.0005672695
0.0077506467
-0.00052661261
0.0077530573
-0.00048539891
0.0077528403
-0.00044423628
0.0077528536
-0.00040306929
0.0077528528
-0.00036190252
0.007752853
-0.00032073574
0.0077528529
-0.00027956896
0.0077528529
-0.00023840222
0.0077528529
-0.00019723544
0.007752853
0.0077528529
-0.00015606866
-0.00068991168
0.0079517375
-0.00064502823
0.0076371625
-0.00061089645
0.0077263779
-0.00056745749
0.0077101794
-0.00052659735
0.0077118219
-0.00048540053
0.0077116779
-0.00044423616
0.0077116866
-0.00040306925
0.0077116861
-0.00036190252
0.0077116862
-0.00032073574
0.0077116861
-0.000279569
0.0077116861
-0.00023840222
0.0077116861
-0.00019723549
0.0077116862
0.0077116861
-0.00015606871
-0.0012880583
0.0078763925
-0.001443721
0.0078538736
-0.0015960697
0.0078613984
-0.0017425364
0.0078600768
-0.0018914046
0.007860224
-0.002039895
0.0078602115
-0.002188424
0.0078602123
-0.0023369498
0.0078602121
-0.0024854759
0.0078602123
-0.0026340019
0.0078602121
-0.002782528
0.0078602123
-0.0029310541
0.0078602122
-0.0030795801
0.0078602122
0.0078602123
-0.0032281063
-0.0012975561
0.0080078965
-0.0014455533
0.0080103354
-0.0015939379
0.0080084267
-0.0017429093
0.008008769
-0.0018913657
0.0080087356
-0.0020398981
0.0080087384
-0.0021884236
0.0080087383
-0.0023369498
0.0080087383
-0.0024854759
0.0080087383
-0.002634002
0.0080087383
-0.002782528
0.0080087382
-0.0029310541
0.0080087382
-0.0030795801
0.0080087383
0.0080087383
-0.0032281062
-0.0012973127
0.0081572079
-0.0014457699
0.0081574294
-0.0015942845
0.0081572291
-0.0017428541
0.0081572679
-0.0018913707
0.008157264
-0.0020398978
0.0081572644
-0.0021884238
0.0081572643
-0.0023369498
0.0081572643
-0.0024854759
0.0081572643
-0.0026340019
0.0081572643
-0.002782528
0.0081572643
-0.0029310541
0.0081572643
-0.0030795802
0.0081572644
0.0081572643
-0.0032281063
-0.0012972663
0.0083058004
-0.0014457931
0.0083057858
-0.0015943202
0.0083057944
-0.0017428447
0.00830579
-0.0018913717
0.0083057904
-0.0020398976
0.0083057904
-0.0021884237
0.0083057904
-0.0023369498
0.0083057904
-0.0024854759
0.0083057904
-0.002634002
0.0083057904
-0.002782528
0.0083057904
-0.0029310541
0.0083057904
-0.0030795801
0.0083057904
0.0083057904
-0.0032281061
-0.0012972672
0.0084543172
-0.0014457935
0.0084543161
-0.0015943194
0.0084543169
-0.0017428455
0.0084543165
-0.0018913716
0.0084543164
-0.0020398977
0.0084543165
-0.0021884238
0.0084543165
-0.0023369498
0.0084543165
-0.0024854759
0.0084543164
-0.0026340019
0.0084543165
-0.002782528
0.0084543165
-0.0029310541
0.0084543164
-0.0030795801
0.0084543165
0.0084543165
-0.0032281063
-0.0012972672
0.0086028425
-0.0014457934
0.0086028426
-0.0015943194
0.0086028425
-0.0017428455
0.0086028426
-0.0018913716
0.0086028425
-0.0020398976
0.0086028426
-0.0021884237
0.0086028425
-0.0023369497
0.0086028426
-0.0024854758
0.0086028425
-0.0026340019
0.0086028426
-0.002782528
0.0086028426
-0.0029310541
0.0086028425
-0.0030795801
0.0086028426
0.0086028425
-0.0032281062
-0.0012972674
0.0087513686
-0.0014457935
0.0087513686
-0.0015943195
0.0087513686
-0.0017428456
0.0087513686
-0.0018913716
0.0087513686
-0.0020398977
0.0087513686
-0.0021884238
0.0087513686
-0.0023369498
0.0087513686
-0.002485476
0.0087513686
-0.002634002
0.0087513686
-0.002782528
0.0087513686
-0.0029310541
0.0087513686
-0.0030795802
0.0087513686
0.0087513686
-0.0032281063
-0.0012972673
0.0088998946
-0.0014457934
0.0088998947
-0.0015943194
0.0088998946
-0.0017428456
0.0088998947
-0.0018913716
0.0088998946
-0.0020398977
0.0088998947
-0.0021884238
0.0088998947
-0.0023369498
0.0088998946
-0.0024854759
0.0088998947
-0.0026340019
0.0088998946
-0.002782528
0.0088998947
-0.0029310541
0.0088998946
-0.0030795801
0.0088998947
0.0088998947
-0.0032281063
-0.0012972674
0.0090484207
-0.0014457934
0.0090484207
-0.0015943195
0.0090484207
-0.0017428456
0.0090484207
-0.0018913716
0.0090484207
-0.0020398976
0.0090484207
-0.0021884237
0.0090484207
-0.0023369498
0.0090484207
-0.0024854759
0.0090484207
-0.002634002
0.0090484207
-0.002782528
0.0090484207
-0.0029310541
0.0090484207
-0.0030795801
0.0090484207
0.0090484207
-0.0012972673
-0.0014457934
-0.0015943194
-0.0017428455
-0.0018913716
-0.0020398977
-0.0021884238
-0.0023369498
-0.0024854759
-0.0026340019
-0.002782528
-0.0029310541
-0.0030795802
-0.00035672842
0.2915424
-0.0003968604
0.2915424
-0.00043699233
0.2915424
-0.00047712426
0.2915424
-0.29150227
-0.00051725624
0.2915424
-0.29150227
-0.00055738818
0.2915424
-0.29150227
-0.00059752011
0.2915424
-0.29150227
-0.00063765209
0.2915424
-0.29150227
-0.00067778402
0.2915424
-0.29150227
0.2915424
-0.29150227
-0.00031659649
0.29158253
-0.00035672846
0.29158253
-0.00039686035
0.29158253
-0.00043699233
0.29158253
-0.00047712431
0.29158253
-0.0005172562
0.29158253
-0.00055738818
0.29158253
-0.00059752015
0.29158253
-0.00063765204
0.29158253
-0.00067778402
0.29158253
0.29158253
-0.00027646455
0.29162266
-0.00031659649
0.29162266
-0.00035672842
0.29162266
-0.0003968604
0.29162266
-0.00043699233
0.29162266
-0.00047712426
0.29162266
-0.00051725624
0.29162266
-0.00055738818
0.29162266
-0.00059752011
0.29162266
-0.00063765209
0.29162266
-0.00067778402
0.29162266
0.29162266
-0.00023633258
0.29166279
-0.00027646451
0.29166279
-0.00031659649
0.29166279
-0.00035672842
0.29166279
-0.0003968604
0.29166279
-0.00043699233
0.29166279
-0.00047712426
0.29166279
-0.00051725624
0.29166279
-0.00055738818
0.29166279
-0.00059752015
0.29166279
-0.00063765209
0.29166279
-0.00067778402
0.29166279
0.29166279
-0.00023633258
0.29170293
-0.00027646455
0.29170293
-0.00031659649
0.29170293
-0.00035672846
0.29170293
-0.00039686035
0.29170293
-0.00043699233
0.29170293
-0.00047712431
0.29170293
-0.0005172562
0.29170293
-0.00055738818
0.29170293
-0.00059752011
0.29170293
-0.00063765209
0.29170293
-0.00067778402
0.29170293
0.29170293
-0.00019620064
0.29174306
-0.00023633262
0.29174306
-0.00027646455
0.29174306
-0.00031659649
0.29174306
-0.00035672842
0.29174306
-0.0003968604
0.29174306
-0.00043699233
0.29174306
-0.00047712426
0.29174306
-0.00051725624
0.29174306
-0.00055738818
0.29174306
-0.00059752011
0.29174306
-0.00063765204
0.29174306
-0.00067778402
0.29174306
0.29174306