/*--------------------------------*- C++ -*----------------------------------*\
| =========                 |                                                 |
| \\      /  F ield         | OpenFOAM: The Open Source CFD Toolbox           |
|  \\    /   O peration     | Version:  2206                                  |
|   \\  /    A nd           | Website:  www.openfoam.com                      |
|    \\/     M anipulation  |                                                 |
\*---------------------------------------------------------------------------*/
FoamFile
{
    version     2.0;
    format      ascii;
    arch        "LSB;label=32;scalar=64";
    class       volVectorField;
    location    "0.02";
    object      U;
}
// * * * * * * * * * * * * * * * * * * * * * * * * * * * * * * * * * * * * * //

dimensions      [0 1 -1 0 0 0 0];

internalField   nonuniform List<vector> 
1396
(
(0.85671779 0.043699275 0)
(0.85671779 0.043699275 0)
(0.85671779 0.043699275 0)
(0.85671779 0.043699275 0)
(0.85671779 0.043699275 0)
(0.85671779 0.043699275 0)
(0.85671779 0.043699275 0)
(0.85671779 0.043699275 0)
(0.85671779 0.043699275 5.45363e-22)
(0.85671779 0.043699275 -5.4537835e-22)
(0.85671779 0.043699275 0)
(0.85671779 0.043699275 5.4540905e-22)
(0.85671779 0.043699275 -1.0908488e-21)
(0.85671779 0.043699275 5.4543993e-22)
(0.85671779 0.043699275 1.1195164e-21)
(0.85671779 0.043699275 -1.1195474e-21)
(0.85671779 0.043699275 0)
(0.85671779 0.043699275 -1.1196121e-21)
(0.85671779 0.043699275 1.6794667e-21)
(0.85671779 0.043699275 -5.5983841e-22)
(0.85671779 0.043699275 0)
(0.85671779 0.043699275 0)
(0.85671779 0.043699275 -5.5988694e-22)
(0.85671779 0.043699275 1.1198062e-21)
(0.85671779 0.043699275 -2.1259927e-34)
(0.85671779 0.043699275 -1.1198709e-21)
(0.85671779 0.043699275 5.5995165e-22)
(0.85671779 0.043699275 0)
(0.85671779 0.043699275 0)
(0.85671779 0.043699275 0)
(0.85671779 0.043699275 0)
(0.85671779 0.043699275 1.1502406e-21)
(0.85671779 0.043699275 -1.1502747e-21)
(0.85671779 0.043699275 5.7515443e-22)
(0.85671779 0.043699275 -5.7517151e-22)
(0.85671779 0.043699275 0)
(0.85671779 0.043699275 0)
(0.85671779 0.043699275 -5.7522273e-22)
(0.85671779 0.043699275 5.752398e-22)
(0.85671779 0.043699275 0)
(0.85671779 0.043699275 0)
(0.85671779 0.043699275 0)
(0.85671779 0.043699275 2.6912855e-34)
(0.85671779 0.043699275 -1.1825197e-21)
(0.85671779 0.043699275 0)
(0.85671779 0.043699275 0)
(0.85671779 0.043699275 0)
(0.85671779 0.043699275 0)
(0.85671779 0.043699275 0)
(0.85671779 0.043699275 0)
(0.85671779 0.043699275 -5.9138615e-22)
(0.85671779 0.043699275 5.914042e-22)
(0.85671779 0.043699275 0)
(0.85671779 0.043699275 0)
(0.85671779 0.043699275 0)
(0.85671779 0.043699275 0)
(0.85671779 0.043699275 0)
(0.85671779 0.043699275 1.2167392e-21)
(0.85671779 0.043699275 5.022625e-34)
(0.85671779 0.043699275 -2.4336312e-21)
(0.85671779 0.043699275 1.2168538e-21)
(0.85671779 0.043699275 0)
(0.85671779 0.043699275 0)
(0.85671779 0.043699275 0)
(0.85671779 0.043699275 6.0850333e-22)
(0.85671779 0.043699275 -6.0852244e-22)
(0.85671779 0.043699275 0)
(0.85671779 0.043699275 0)
(0.85671779 0.043699275 6.0857977e-22)
(0.85671779 0.043699275 -6.0859917e-22)
(0.85671779 0.043699275 0)
(0.85671779 0.043699275 0)
(0.85671779 0.043699275 -1.2530388e-21)
(0.85671779 0.043699275 1.2530793e-21)
(0.85671779 0.043699275 0)
(0.85671779 0.043699275 0)
(0.85671779 0.043699275 0)
(0.85671779 0.043699275 -6.2662069e-22)
(0.85671779 0.043699275 1.9619056e-35)
(0.85671779 0.043699275 6.2666122e-22)
(0.85671779 0.043699275 0)
(0.85671779 0.043699275 6.2670175e-22)
(0.85671779 0.043699275 -1.253444e-21)
(0.85671779 0.043699275 6.2674261e-22)
(0.85671779 0.043699275 1.2914436e-21)
(0.85671779 0.043699275 -1.2914847e-21)
(0.85671779 0.043699275 0)
(0.85671779 0.043699275 0)
(0.85671779 0.043699275 0)
(0.85671779 0.043699275 -6.4582841e-22)
(0.85671779 0.043699275 6.4584994e-22)
(0.85671779 0.043699275 0)
(0.85671779 0.043699275 6.4589299e-22)
(0.85671779 0.043699275 -6.4591452e-22)
(0.85671779 0.043699275 0)
(0.85671779 0.043699275 -6.4595758e-22)
(0.85671779 0.043699275 6.4597911e-22)
(0.85671779 0.043699275 0)
(0.85671779 0.043699275 0)
(0.85671779 0.043699275 -1.3324103e-21)
(0.85671779 0.043699275 1.3324561e-21)
(0.85671779 0.043699275 0)
(0.85671779 0.043699275 0)
(0.85671779 0.043699275 0)
(0.85671779 0.043699275 -6.6631966e-22)
(0.85671779 0.043699275 6.6634258e-22)
(0.85671779 0.043699275 -6.6636549e-22)
(0.85671779 0.043699275 1.3327768e-21)
(0.85671779 0.043699275 -6.6641132e-22)
(0.85671779 0.043699275 -6.6643424e-22)
(0.85671779 0.043699275 6.6645716e-22)
(0.85671779 0.043699275 6.6648049e-22)
(0.85671779 0.043699275 -2.8918106e-21)
(0.85671779 0.043699275 -2.7988198e-21)
(0.85671779 0.043699275 2.79348e-21)
(0.85671779 0.043699275 0)
(0.85671779 0.043699275 -2.7828614e-21)
(0.85671779 0.043699275 2.7775825e-21)
(0.85671779 0.043699275 2.7723232e-21)
(0.85671779 0.043699275 -2.767084e-21)
(0.85671779 0.043699275 -8.6308264e-23)
(0.85671779 0.043699275 0)
(0.85671779 0.043699275 0)
(0.85671779 0.043699275 0)
(0.85671779 0.043699275 0)
(0.85671779 0.043699275 0)
(0.85671779 0.043699275 0)
(0.85671779 0.043699275 1.7202749e-22)
(0.85671779 0.043699275 0)
(0.85671779 0.043699275 0)
(0.85671779 0.043699275 -8.6043627e-23)
(0.85671779 0.043699275 0)
(0.85671779 0.043699275 -2.9145218e-21)
(0.85671779 0.043699275 8.5750907e-23)
(0.85671779 0.043699275 0)
(0.85671779 0.043699275 1.7086138e-22)
(0.85671779 0.043699275 0)
(0.85671779 0.043699275 1.5785966e-35)
(0.85671779 0.043699275 -9.3627668e-25)
(0.85671779 0.043699275 8.9124449e-25)
(0.85671779 0.043699275 -6.9932401e-21)
(0.85671779 0.043699275 6.6864015e-21)
(0.85671779 0.043699275 0)
(0.85671779 0.043699275 6.1230674e-21)
(0.85671779 0.043699275 -7.731946e-21)
(0.85671779 0.043699275 -7.358957e-21)
(0.85671779 0.043699275 6.9904709e-21)
(0.85671779 0.043699275 2.6202242e-23)
(0.85671779 0.043699275 0)
(0.85671779 0.043699275 -6.1149489e-21)
(0.85671779 0.043699275 7.7968497e-21)
(0.85671779 0.043699275 7.4159441e-21)
(0.85671779 0.043699275 7.0705223e-21)
(0.85671779 0.043699275 2.6390025e-23)
(0.85671779 0.043699275 -2.5265573e-23)
(0.85671779 0.043699275 0)
(0.85671779 0.043699275 0)
(0.85671779 0.043699275 -7.474745e-21)
(0.85671779 0.043699275 -5.046055e-34)
(0.85671779 0.043699275 6.8046121e-21)
(0.85671779 0.043699275 -6.5635526e-21)
(0.85671779 0.043699275 6.2935386e-21)
(0.85671779 0.043699275 -9.6777245e-25)
(0.85671779 0.043699275 7.535408e-21)
(0.85671779 0.043699275 -4.7019479e-34)
(0.85671779 0.043699275 -2.6773777e-23)
(0.85671779 0.043699275 6.583594e-21)
(0.85671779 0.043699275 -6.2863935e-21)
(0.85671779 0.043699275 8.4392849e-21)
(0.85671779 0.043699275 7.9962062e-21)
(0.85671779 0.043699275 -9.2714757e-25)
(0.85671779 0.043699275 -1.4466559e-20)
(0.85671779 0.043699275 -1.3808572e-20)
(0.85671779 0.043699275 -6.6039189e-21)
(0.85671779 0.043699275 6.3780398e-21)
(0.85671779 0.043699275 -8.5155169e-21)
(0.85671779 0.043699275 7.1619343e-34)
(0.85671779 0.043699275 -7.6568839e-21)
(0.85671779 0.043699275 7.2892077e-21)
(0.85671779 0.043699275 6.9280566e-21)
(0.85671779 0.043699275 2.5978548e-23)
(0.85671779 0.043699275 -6.37137e-21)
(0.85671779 0.043699275 8.5931403e-21)
(0.85671779 0.043699275 -4.0656021e-21)
(0.85671779 0.043699275 7.7186417e-21)
(0.85671779 0.043699275 -3.7017006e-21)
(0.85671779 0.043699275 2.7370799e-23)
(0.85671779 0.043699275 3.3488803e-21)
(0.85671779 0.043699275 -3.2073626e-21)
(0.85671779 0.043699275 4.3360967e-21)
(0.85671779 0.043699275 -4.1019859e-21)
(0.85671779 0.043699275 -3.8916609e-21)
(0.85671779 0.043699275 3.7018523e-21)
(0.85671779 0.043699275 -2.7575763e-23)
(0.85671779 0.043699275 3.399194e-21)
(0.85671779 0.043699275 3.279796e-21)
(0.85671779 0.043699275 4.6071856e-21)
(0.85671779 0.043699275 -8.7527101e-21)
(0.85671779 0.043699275 1.010253e-24)
(0.85671779 0.043699275 3.9231011e-21)
(0.85671779 0.043699275 0)
(0.85671779 0.043699275 0)
(0.85671779 0.043699275 -3.4502334e-21)
(0.85671779 0.043699275 5.0806485e-23)
(0.85671779 0.043699275 -4.6896637e-21)
(0.85671779 0.043699275 4.4173703e-21)
(0.85671779 0.043699275 -1.019201e-24)
(0.85671779 0.043699275 9.6606511e-25)
(0.85671779 0.043699275 0)
(0.85671779 0.043699275 -2.7995048e-23)
(0.85671779 0.043699275 3.4485476e-21)
(0.85671779 0.043699275 3.3253617e-21)
(0.85671779 0.043699275 -3.7006191e-23)
(0.85671779 0.043699275 0)
(0.85671779 0.043699275 -4.2119513e-21)
(0.85671779 0.043699275 0)
(0.85671779 0.043699275 -2.9618575e-23)
(0.85671779 0.043699275 -3.582608e-21)
(0.85671779 0.043699275 0)
(0.85671779 0.043699275 -6.5942114e-21)
(0.85671779 0.043699275 -3.738186e-23)
(0.85671779 0.043699275 -4.5017501e-21)
(0.85671779 0.043699275 4.2488917e-21)
(0.85671779 0.043699275 4.0255587e-21)
(0.85671779 0.043699275 -2.9858733e-23)
(0.85671779 0.043699275 3.6386913e-21)
(0.85671779 0.043699275 3.4993563e-21)
(0.85671779 0.043699275 3.3203321e-21)
(0.85671779 0.043699275 0)
(0.85671779 0.043699275 4.5451628e-21)
(0.85671779 0.043699275 4.2885999e-21)
(0.85671779 0.043699275 -4.0592375e-21)
(0.85671779 0.043699275 0)
(0.85671779 0.043699275 0)
(0.85671779 0.043699275 -1.7103195e-33)
(0.85671779 0.043699275 5.2248253e-23)
(0.85671779 0.043699275 4.0188189e-22)
(0.85671779 0.043699275 -5.3783752e-22)
(0.85671779 0.043699275 0)
(0.85671779 0.043699275 2.7093619e-22)
(0.85671779 0.043699275 -2.7195631e-22)
(0.85671779 0.043699275 4.0005672e-36)
(0.85671779 0.043699275 -5.3573677e-35)
(0.85671779 0.043699275 2.7506325e-22)
(0.85671779 0.043699275 -1.5363202e-21)
(0.85671779 0.043699275 1.1216615e-21)
(0.85671779 0.043699275 0)
(0.85671779 0.043699275 -1.4130485e-22)
(0.85671779 0.043699275 -4.2557968e-22)
(0.85671779 0.043699275 8.5451592e-22)
(0.85671779 0.043699275 -2.8596634e-22)
(0.85671779 0.043699275 -1.435515e-22)
(0.85671779 0.043699275 1.1623275e-21)
(0.85671779 0.043699275 -7.3593219e-35)
(0.85671779 0.043699275 -5.8587775e-22)
(0.85671779 0.043699275 0)
(0.85671779 0.043699275 -2.9533441e-22)
(0.85671779 0.043699275 4.448204e-22)
(0.85671779 0.043699275 0)
(0.85671779 0.043699275 0)
(0.85671779 0.043699275 -1.5012249e-22)
(0.85671779 0.043699275 -1.2111088e-21)
(0.85671779 0.043699275 6.081035e-22)
(0.85671779 0.043699275 0)
(0.85671779 0.043699275 -6.1326658e-22)
(0.85671779 0.043699275 6.1588112e-22)
(0.85671779 0.043699275 3.0925904e-22)
(0.85671779 0.043699275 1.1006747e-34)
(0.85671779 0.043699275 -4.6789521e-22)
(0.85671779 0.043699275 0)
(0.85671779 0.043699275 -1.573239e-22)
(0.85671779 0.043699275 -1.2697197e-21)
(0.85671779 0.043699275 1.2753244e-21)
(0.85671779 0.043699275 -7.2055054e-22)
(0.85671779 0.043699275 0)
(0.85671779 0.043699275 8.0777451e-23)
(0.85671779 0.043699275 -8.1140422e-23)
(0.85671779 0.043699275 0)
(0.85671779 0.043699275 4.9125739e-22)
(0.85671779 0.043699275 5.3254861e-35)
(0.85671779 0.043699275 -1.3281582e-21)
(0.85671779 0.043699275 6.6714594e-22)
(0.85671779 0.043699275 0)
(0.85671779 0.043699275 8.417068e-23)
(0.85671779 0.043699275 8.4564856e-23)
(0.85671779 0.043699275 -8.4962742e-23)
(0.85671779 0.043699275 4.2682196e-22)
(0.85671779 0.043699275 -1.1880105e-34)
(0.85671779 0.043699275 3.5488929e-34)
(0.85671779 0.043699275 -3.4636981e-22)
(0.85671779 0.043699275 7.8692443e-22)
(0.85671779 0.043699275 -7.0289186e-22)
(0.85671779 0.043699275 -7.9461968e-22)
(0.85671779 0.043699275 7.9852401e-22)
(0.85671779 0.043699275 -8.9162988e-23)
(0.85671779 0.043699275 0)
(0.85671779 0.043699275 0)
(0.85671779 0.043699275 0)
(0.85671779 0.043699275 0)
(0.85671779 0.043699275 0)
(0.85671779 0.043699275 -9.2360809e-23)
(0.85671779 0.043699275 0)
(0.85671779 0.043699275 -7.4652313e-22)
(0.85671779 0.043699275 6.5660083e-22)
(0.85671779 0.043699275 -9.4289911e-23)
(0.85671779 0.043699275 7.5827877e-22)
(0.85671779 0.043699275 -1.048135e-21)
(0.85671779 0.043699275 -7.4018748e-35)
(0.85671779 0.043699275 5.687928e-36)
(0.85671779 0.043699275 -4.8370131e-35)
(0.85671779 0.043699275 -1.4681017e-21)
(0.85671779 0.043699275 7.8725461e-22)
(0.85671779 0.043699275 -2.9440383e-35)
(0.85671779 0.043699275 9.9491205e-23)
(0.85671779 0.043699275 1.0004241e-22)
(0.85671779 0.043699275 -7.0419827e-22)
(0.85671779 0.043699275 6.0698003e-22)
(0.85671779 0.043699275 1.0173328e-22)
(0.85671779 0.043699275 4.092387e-22)
(0.85671779 0.043699275 6.2451546e-22)
(0.85671779 0.043699275 -1.6750297e-21)
(0.85671779 0.043699275 1.6847974e-21)
(0.85671779 0.043699275 -9.5325733e-22)
(0.85671779 0.043699275 -1.0654241e-22)
(0.85671779 0.043699275 -2.1434952e-22)
(0.85671779 0.043699275 1.0781466e-22)
(0.85671779 0.043699275 -2.1692449e-22)
(0.85671779 0.043699275 -4.3647065e-22)
(0.85671779 0.043699275 1.1114049e-22)
(0.85671779 0.043699275 1.1182878e-22)
(0.85671779 0.043699275 -6.7515386e-22)
(0.85671779 0.043699275 9.0584992e-22)
(0.85671779 0.043699275 2.278915e-22)
(0.85671779 0.043699275 1.1466933e-21)
(0.85671779 0.043699275 -1.3848259e-21)
(0.85671779 0.043699275 1.0452998e-21)
(0.85671779 0.043699275 -3.5068884e-22)
(0.85671779 0.043699275 -9.5376694e-22)
(0.85671779 0.043699275 -1.2001323e-22)
(0.85671779 0.043699275 9.6652957e-22)
(0.85671779 0.043699275 -9.7303982e-22)
(0.85671779 0.043699275 8.5718357e-22)
(0.85671779 0.043699275 -1.2329087e-22)
(0.85671779 0.043699275 0)
(0.85671779 0.043699275 -6.2498883e-22)
(0.85671779 0.043699275 -8.0939009e-34)
(0.85671779 0.043699275 -2.0718445e-21)
(0.85671779 0.043699275 2.086809e-21)
(0.85671779 0.043699275 -1.1823701e-21)
(0.85671779 0.043699275 1.3233725e-22)
(0.85671779 0.043699275 9.3319981e-22)
(0.85671779 0.043699275 -1.0744465e-21)
(0.85671779 0.043699275 1.3531222e-22)
(0.85671779 0.043699275 0)
(0.85671779 0.043699275 1.2653316e-21)
(0.85671779 0.043699275 -2.4088256e-21)
(0.85671779 0.043699275 1.2853466e-21)
(0.85671779 0.043699275 -1.4395482e-22)
(0.85671779 0.043699275 2.902233e-22)
(0.85671779 0.043699275 0)
(0.85639579 0.043165815 -2.4089972e-23)
(0.85671735 0.043698546 -2.0154425e-30)
(0.85671704 0.043698038 -1.3969665e-22)
(0.85671662 0.043697326 4.7311217e-23)
(0.85671598 0.043696313 -2.4040575e-23)
(0.8567152 0.043695399 2.4438281e-23)
(0.85671779 0.043699275 -2.1769295e-33)
(0.85671779 0.043699274 -1.7489243e-22)
(0.85671779 0.043699274 -1.7751949e-22)
(0.85671779 0.043699273 2.7034001e-22)
(0.85671779 0.043699271 -9.9669501e-33)
(0.85671779 0.043699268 -1.9714154e-32)
(0.85671778 0.043699261 -5.1938533e-22)
(0.85671777 0.043699249 9.5967373e-23)
(0.85671776 0.043699229 -4.3898259e-22)
(0.85671774 0.043699212 0)
(0.85671779 0.043699275 1.6483089e-22)
(0.85671779 0.043699275 -3.3432475e-22)
(0.85671779 0.043699275 -1.6956075e-22)
(0.85671779 0.043699275 1.7202895e-22)
(0.85671779 0.043699275 -6.0992543e-35)
(0.85671779 0.043699275 -3.5437474e-22)
(0.85671779 0.043699275 1.7988436e-22)
(0.85671779 0.043699275 -4.5666178e-22)
(0.85671779 0.043699275 9.2766181e-23)
(0.85671779 0.043699275 -9.4245747e-23)
(0.85671779 0.043699275 2.8731982e-22)
(0.85671779 0.043699275 0)
(0.85671779 0.043699275 5.9389111e-22)
(0.85671779 0.043699275 0)
(0.85671779 0.043699275 3.3373565e-22)
(0.85671779 0.043699275 -5.0777315e-22)
(0.85671779 0.043699275 0)
(0.85671779 0.043699275 -1.7424887e-22)
(0.85671779 0.043699275 3.5371296e-22)
(0.85671779 0.043699275 3.5908666e-22)
(0.85671779 0.043699275 -3.6462615e-22)
(0.85671779 0.043699275 5.5550884e-22)
(0.85671779 0.043699275 -1.8811709e-22)
(0.85671779 0.043699275 -4.3719411e-34)
(0.85671779 0.043699275 1.4572711e-22)
(0.85671779 0.043699275 -9.8775384e-23)
(0.85671779 0.043699275 -7.5340933e-23)
(0.85671779 0.043699275 -1.7883572e-22)
(0.85671779 0.043699275 3.3791148e-22)
(0.85671779 0.043699275 1.4044078e-35)
(0.85671779 0.043699275 3.4785771e-22)
(0.85671779 0.043699275 2.9240836e-35)
(0.85671779 0.043699275 -1.1300699e-35)
(0.85671779 0.043699275 -1.8196279e-22)
(0.85671779 0.043699275 1.8480828e-22)
(0.85671779 0.043699275 -1.8774417e-22)
(0.85671779 0.043699275 3.8154971e-22)
(0.85671779 0.043699275 1.9390498e-22)
(0.85671779 0.043699275 -1.9713954e-22)
(0.85671779 0.043699275 2.0048385e-22)
(0.85671779 0.043699275 -2.0394358e-22)
(0.85671779 0.043699275 2.0752479e-22)
(0.85671779 0.043699275 1.7109655e-22)
(0.85671779 0.043699275 -3.4722004e-22)
(0.85671779 0.043699275 -3.5239682e-22)
(0.85671779 0.043699275 3.577303e-22)
(0.85671779 0.043699275 -1.7824258e-35)
(0.85671779 0.043699275 -3.688967e-22)
(0.85671779 0.043699275 0)
(0.85671779 0.043699275 1.9039133e-22)
(0.85671779 0.043699275 -1.9350878e-22)
(0.85671779 0.043699275 -9.8365016e-23)
(0.85671779 0.043699275 -1.5004526e-22)
(0.85671779 0.043699275 -2.0350535e-22)
(0.85671779 0.043699275 -1.8118719e-22)
(0.85671779 0.043699275 2.6345494e-23)
(0.85671779 0.043699275 3.4658465e-22)
(0.85671779 0.043699275 -3.5174242e-22)
(0.85671779 0.043699275 0)
(0.85671779 0.043699275 -1.8126624e-22)
(0.85671779 0.043699275 3.6817963e-22)
(0.85671779 0.043699275 -3.7400549e-22)
(0.85671779 0.043699275 -1.450933e-34)
(0.85671779 0.043699275 2.8967131e-22)
(0.85671779 0.043699275 -9.8161113e-23)
(0.85671779 0.043699275 2.9945793e-22)
(0.85671779 0.043699275 -1.0153449e-22)
(0.85671779 0.043699275 2.5827413e-22)
(0.85671779 0.043699275 1.5772198e-22)
(0.85671779 0.043699275 -2.1410583e-22)
(0.85671779 0.043699275 4.3886297e-22)
(0.85671779 0.043699275 -3.5638413e-22)
(0.85671779 0.043699275 -9.0459981e-23)
(0.85671779 0.043699275 -9.1866338e-23)
(0.85671779 0.043699275 9.3317114e-23)
(0.85671779 0.043699275 0)
(0.85671779 0.043699275 -9.6360616e-23)
(0.85671779 0.043699275 -9.7958046e-23)
(0.85671779 0.043699275 -9.9609335e-23)
(0.85671779 0.043699275 2.026345e-22)
(0.85671779 0.043699275 -1.5462713e-22)
(0.85671779 0.043699275 5.2457511e-23)
(0.85671779 0.043699275 1.0681146e-22)
(0.85671779 0.043699275 1.087777e-22)
(0.85671779 0.043699275 2.6678609e-22)
(0.85671779 0.043699275 -2.7086251e-22)
(0.85671779 0.043699275 1.8337692e-22)
(0.85671779 0.043699275 -9.313358e-23)
(0.85671779 0.043699275 2.8387495e-22)
(0.85671779 0.043699275 -1.9232985e-22)
(0.85671779 0.043699275 -4.5756569e-35)
(0.85671779 0.043699275 1.9880048e-22)
(0.85671779 0.043699275 2.0220186e-22)
(0.85671779 0.043699275 3.0216913e-35)
(0.85671779 0.043699275 -1.0468309e-22)
(0.85671779 0.043699275 5.3285535e-23)
(0.85671779 0.043699275 -1.8992471e-22)
(0.85671779 0.043699275 1.3819871e-22)
(0.85671779 0.043699275 5.2905638e-35)
(0.85671779 0.043699275 -4.5755634e-22)
(0.85671779 0.043699275 -4.6475382e-23)
(0.85671779 0.043699275 -1.416544e-22)
(0.85671779 0.043699275 2.3992507e-22)
(0.85671779 0.043699275 -1.4633164e-22)
(0.85671779 0.043699275 2.9757608e-22)
(0.85671779 0.043699275 -2.0177108e-22)
(0.85671779 0.043699275 5.1318941e-23)
(0.85671779 0.043699275 1.5667826e-22)
(0.74737084 -0.062505994 5.0328014e-25)
(0.71366418 -0.073226937 4.2197327e-25)
(0.68486002 -0.063421138 1.1615418e-22)
(0.67251956 -0.023082806 -6.804536e-22)
(0.61431285 -0.048410087 -5.5778565e-22)
(0.69182151 0.042017243 4.4168947e-22)
(0.64192663 0.056865091 -4.4385778e-22)
(0.73894386 0.098339418 2.1915619e-22)
(0.70985313 0.14724013 0)
(0.7882067 0.11856441 6.5324219e-22)
(0.77572933 0.17189167 -2.1495206e-22)
(0.77774722 0.23197808 2.2339722e-22)
(0.82723421 0.11173976 -4.3072158e-22)
(0.8276406 0.15567833 -6.468175e-22)
(0.84149771 0.2018852 -4.3102711e-22)
(0.86056946 0.094068122 -5.1031359e-25)
(0.87370752 0.12412303 4.2849758e-22)
(0.89365468 0.15588703 -4.3426292e-22)
(0.93352032 0.15958077 1.4527833e-21)
(0.91441903 0.12555267 -1.0738566e-24)
(0.89567367 0.100784 -1.2668825e-21)
(0.87774949 0.079754823 1.1895484e-21)
(0.93716919 0.15401715 0)
(0.91935386 0.12018603 -1.353557e-21)
(0.90181567 0.095816671 1.2639465e-21)
(0.88329725 0.076223546 0)
(0.94065209 0.14816558 -2.8461489e-24)
(0.92378738 0.11461028 5.4096923e-21)
(0.90732343 0.090653823 0)
(0.88855692 0.072360866 2.3717189e-21)
(0.92765146 0.10926711 -2.699491e-21)
(0.91214769 0.085693503 -3.6974161e-24)
(0.89338005 0.068524498 -4.7357369e-21)
(0.93100342 0.10404887 2.7043585e-21)
(0.91623168 0.08089875 0)
(0.89753968 0.064730572 4.7310313e-21)
(0.93386255 0.098941945 -2.7029912e-21)
(0.9195913 0.076301073 0)
(0.90091968 0.061092104 -2.36223e-21)
(0.93623869 0.093938181 0)
(0.92226551 0.071900867 0)
(0.90350008 0.057665946 0)
(0.93811567 0.089010432 -2.643268e-24)
(0.92427633 0.067662492 1.2305122e-24)
(0.90531973 0.054462947 1.1513309e-24)
(0.93947418 0.084134619 0)
(0.92562123 0.063550401 -2.5180633e-21)
(0.90643117 0.051471619 0)
(0.94031523 0.079320173 2.6464213e-24)
(0.92630273 0.059585955 -3.6487608e-24)
(0.90690109 0.048701522 0)
(0.940653 0.074576998 2.7106919e-21)
(0.9263644 0.055841197 2.5167525e-21)
(0.90686785 0.046266615 2.3502064e-21)
(0.9404975 0.069891755 -2.7136465e-21)
(0.92590835 0.052383767 0)
(0.90658756 0.044203524 -4.6920169e-21)
(0.93990071 0.065433343 0)
(0.92509876 0.049351044 0)
(0.90630411 0.042635313 4.6852156e-21)
(0.93902573 0.061962112 0)
(0.92411834 0.047208921 0)
(0.90587405 0.041587705 -2.3385901e-21)
(0.8563457 0.043237137 0)
(0.85559498 0.042209465 8.1573599e-23)
(0.85392316 0.040284541 -1.0071114e-26)
(0.85086633 0.037162287 -2.4548493e-22)
(0.8461924 0.03313342 -4.0932218e-23)
(0.84010022 0.029092883 1.2311264e-22)
(0.83335652 0.026448804 0)
(0.82738405 0.026789368 0)
(0.82417683 0.031155306 -6.7942779e-25)
(0.82563629 0.038995291 3.7112899e-22)
(0.83204968 0.047368565 -3.3046533e-22)
(0.84088514 0.050811588 -4.1139826e-23)
(0.8488422 0.050989737 0)
(0.85492399 0.049402061 4.1639792e-23)
(0.85671518 0.043697135 0)
(0.856709 0.043691657 -4.178199e-23)
(0.85669353 0.043679965 0)
(0.85666014 0.043657375 -1.6773531e-22)
(0.85660058 0.043622237 2.1003802e-22)
(0.85651314 0.043579104 4.2065131e-23)
(0.85640967 0.043540775 1.6864725e-22)
(0.85631687 0.043524541 -5.0686002e-22)
(0.85626959 0.043539164 7.1931345e-22)
(0.85629422 0.043469483 -3.8149265e-22)
(0.85638534 0.042927121 0)
(0.85650409 0.04371033 0)
(0.85660987 0.043731759 0)
(0.85656452 0.043706076 -4.2702158e-23)
(0.85671776 0.043699257 1.1410015e-31)
(0.85671767 0.04369921 8.5685642e-23)
(0.85671742 0.043699097 -8.5844169e-23)
(0.85671684 0.043698845 -4.3001642e-23)
(0.85671567 0.043698383 -1.7232596e-22)
(0.85671378 0.0436977 1.7264656e-22)
(0.85671134 0.04369691 4.3242087e-23)
(0.85670896 0.043696271 0)
(0.85670756 0.043696026 0)
(0.85670742 0.043693849 -4.3485257e-23)
(0.85670927 0.043614217 0)
(0.85671378 0.043614831 0)
(0.85671681 0.04368674 0)
(0.85671712 0.043698449 4.3813702e-23)
(0.85671779 0.043699275 -4.3874912e-23)
(0.85671779 0.043699274 4.3958027e-23)
(0.85671779 0.043699274 8.808295e-23)
(0.85671778 0.043699271 -2.206262e-22)
(0.85671777 0.043699268 1.7683729e-22)
(0.85671776 0.043699262 0)
(0.85671773 0.043699255 -8.8756903e-23)
(0.85671771 0.043699249 0)
(0.8567177 0.043699246 0)
(0.85671769 0.043699232 4.4634583e-23)
(0.85671762 0.043698976 4.4720634e-23)
(0.85671764 0.04369345 0)
(0.85671784 0.043695518 -3.1425596e-22)
(0.85671786 0.043699009 3.598457e-22)
(0.85671779 0.043699275 -4.5045232e-23)
(0.85671779 0.043699275 1.3539853e-22)
(0.85671779 0.043699275 -9.0441632e-23)
(0.85671779 0.043699275 1.8123652e-22)
(0.85671779 0.043699275 -3.6318233e-22)
(0.85671779 0.043699275 1.819472e-22)
(0.85671779 0.043699275 4.5576158e-23)
(0.85671779 0.043699275 3.6532695e-22)
(0.85671779 0.043699275 -2.4441774e-33)
(0.85671779 0.043699275 -3.6677081e-22)
(0.85671779 0.043699274 3.2155991e-22)
(0.85671779 0.043699263 -3.6822614e-22)
(0.8567178 0.043699261 -4.6119766e-23)
(0.8567178 0.043699259 -4.6211602e-23)
(0.85671779 0.043699275 -6.9419548e-23)
(0.85671779 0.043699275 4.6372182e-23)
(0.85671779 0.043699275 6.9697582e-23)
(0.85671779 0.043699275 -2.7934982e-22)
(0.85671779 0.043699275 -1.7237057e-35)
(0.85671779 0.043699275 2.1035665e-22)
(0.85671779 0.043699275 0)
(0.85671779 0.043699275 -2.3467532e-23)
(0.85671779 0.043699275 -2.3515104e-23)
(0.85671779 0.043699275 0)
(0.85671779 0.043699275 2.361083e-23)
(0.85671779 0.043699275 0)
(0.85671779 0.043699275 -4.0302475e-22)
(0.85671779 0.043699275 4.0384985e-22)
(0.85671779 0.043699275 4.758373e-23)
(0.85671779 0.043699275 0)
(0.85671779 0.043699275 4.7779703e-23)
(0.85671779 0.043699275 1.9151323e-22)
(0.85671779 0.043699275 -3.5982989e-22)
(0.85671779 0.043699275 1.6826859e-22)
(0.85671779 0.043699275 2.4088288e-23)
(0.85671779 0.043699275 4.3449142e-22)
(0.85671779 0.043699275 -3.6283119e-22)
(0.85671779 0.043699275 -2.423929e-23)
(0.85671779 0.043699275 -2.4290048e-23)
(0.85671779 0.043699275 0)
(0.85671779 0.043699275 2.4392199e-23)
(0.85671779 0.043699275 -2.4443585e-23)
(0.85671779 0.043699275 -7.3445074e-23)
(0.85671779 0.043699275 1.4720074e-22)
(0.85671779 0.043699275 -2.4585454e-23)
(0.85671779 0.043699275 1.2318836e-22)
(0.85671779 0.043699275 -2.22211e-22)
(0.85671779 0.043699275 0)
(0.85671779 0.043699275 -2.4795664e-23)
(0.85671779 0.043699275 9.3439495e-36)
(0.85671779 0.043699275 3.9843397e-22)
(0.85671779 0.043699275 -3.7433545e-22)
(0.85671779 0.043699275 0)
(0.85671779 0.043699275 -2.5063537e-23)
(0.85671779 0.043699275 -4.0188491e-22)
(0.85671779 0.043699275 4.027568e-22)
(0.85671779 0.043699275 -5.0425426e-23)
(0.85671779 0.043699275 1.5160571e-22)
(0.85671779 0.043699275 -1.0129111e-22)
(0.85671779 0.043699275 -2.284036e-22)
(0.85671779 0.043699275 -5.8643047e-35)
(0.85671779 0.043699275 2.0391768e-22)
(0.85671779 0.043699275 0)
(0.85671779 0.043699275 -2.5602225e-23)
(0.85671779 0.043699275 0)
(0.85671779 0.043699275 -4.1145182e-22)
(0.85671779 0.043699275 4.1236597e-22)
(0.85671779 0.043699275 -3.8745395e-22)
(0.85671779 0.043699275 4.1420652e-22)
(0.85671779 0.043699275 0)
(0.85671779 0.043699275 -6.4971837e-23)
(0.85671779 0.043699275 5.2094152e-23)
(0.85671779 0.043699275 9.1369931e-23)
(0.85671779 0.043699275 -1.177406e-22)
(0.85671779 0.043699275 -2.0978981e-22)
(0.85671779 0.043699275 1.9712358e-22)
(0.85671779 0.043699275 0)
(0.85671779 0.043699275 -4.3564603e-22)
(0.85671779 0.043699275 8.3358517e-22)
(0.85671779 0.043699275 -4.111147e-22)
(0.85671779 0.043699275 -1.3292157e-23)
(0.85671779 0.043699275 0)
(0.85671779 0.043699275 1.3353362e-23)
(0.85671779 0.043699275 1.3384171e-23)
(0.85671779 0.043699275 0)
(0.85671779 0.043699275 0)
(0.85671779 0.043699275 0)
(0.85671779 0.043699275 0)
(0.8567178 0.043699275 0)
(0.85671792 0.043699273 1.0162015e-21)
(0.85671713 0.043699276 0)
(0.85670514 0.043700757 0)
(0.85672836 0.043703237 0)
(0.86259009 0.043380785 0)
(0.85671779 0.043699275 0)
(0.85671779 0.043699275 0)
(0.85671779 0.043699275 0)
(0.85671779 0.043699275 0)
(0.8567178 0.043699275 0)
(0.85671776 0.043699274 -5.542404e-32)
(0.85671706 0.043699254 0)
(0.85671696 0.04370036 0)
(0.85675695 0.043719191 0)
(0.86287787 0.043556375 0)
(0.85671779 0.043699275 0)
(0.85671779 0.043699275 0)
(0.85671779 0.043699275 0)
(0.85671779 0.043699275 0)
(0.85671779 0.043699275 0)
(0.85671776 0.043699274 -5.0825604e-22)
(0.85671769 0.043699254 0)
(0.85671874 0.043699274 0)
(0.85676072 0.043705252 0)
(0.86293294 0.043827265 0)
(0.85671779 0.043699275 0)
(0.85671779 0.043699275 0)
(0.85671779 0.043699275 0)
(0.85671779 0.043699275 0)
(0.85671779 0.043699275 0)
(0.85671778 0.043699274 0)
(0.85671781 0.043699262 0)
(0.85671848 0.043699259 0)
(0.85675934 0.043704561 0)
(0.86286029 0.044160349 0)
(0.85671779 0.043699275 0)
(0.85671779 0.043699275 0)
(0.85671779 0.043699275 0)
(0.85671779 0.043699275 0)
(0.85671779 0.043699275 0)
(0.85671779 0.043699274 0)
(0.8567178 0.043699273 0)
(0.85671839 0.043699299 0)
(0.85675633 0.043706247 0)
(0.86267998 0.044496421 0)
(0.85671779 0.043699275 0)
(0.85671779 0.043699275 0)
(0.85671779 0.043699275 0)
(0.85671779 0.043699275 0)
(0.85671779 0.043699275 0)
(0.85671779 0.043699275 -2.5424805e-22)
(0.85671779 0.043699277 0)
(0.8567183 0.043699328 0)
(0.85675241 0.043707677 0)
(0.86238313 0.044874489 0)
(0.85671779 0.043699275 0)
(0.85671779 0.043699275 0)
(0.85671779 0.043699275 0)
(0.85671779 0.043699275 0)
(0.85671779 0.043699275 0)
(0.85671779 0.043699275 5.0857618e-22)
(0.85671779 0.04369928 0)
(0.85671822 0.043699359 0)
(0.8567478 0.043708662 0)
(0.86196789 0.045270605 0)
(0.85671779 0.043699275 0)
(0.85671779 0.043699275 0)
(0.85671779 0.043699275 0)
(0.85671779 0.043699275 0)
(0.85671779 0.043699275 0)
(0.85671779 0.043699275 -2.5432812e-22)
(0.85671779 0.043699282 0)
(0.85671813 0.043699389 0)
(0.8567427 0.043709558 0)
(0.86144381 0.045670388 0)
(0.85671779 0.043699275 0)
(0.85671779 0.043699275 0)
(0.85671779 0.043699275 0)
(0.85671779 0.043699275 0)
(0.85671779 0.043699275 0)
(0.85671778 0.043699275 0)
(0.85671777 0.043699283 0)
(0.85671803 0.043699406 0)
(0.8567373 0.043710335 0)
(0.86082988 0.046064984 0)
(0.85671779 0.043699275 0)
(0.85671779 0.043699275 -7.0875842e-22)
(0.85671779 0.043699275 0)
(0.85671779 0.043699275 0)
(0.85671779 0.043699275 -9.176556e-22)
(0.85671777 0.043699273 1.0176331e-21)
(0.85671762 0.043699281 0)
(0.85671794 0.043699451 0)
(0.85673168 0.043710748 -1.5117255e-21)
(0.86015215 0.046447004 0)
(0.85671779 0.043699275 0)
(0.85671779 0.043699275 7.0883627e-22)
(0.85671779 0.043699275 0)
(0.85671779 0.043699275 0)
(0.85671779 0.043699275 9.1778604e-22)
(0.85671779 0.043699268 -2.0355868e-21)
(0.85671747 0.043699266 0)
(0.85671688 0.043699479 0)
(0.85672594 0.043711026 1.5120787e-21)
(0.85943984 0.046809834 0)
(0.85671779 0.043699275 0)
(0.85671779 0.043699275 0)
(0.85671779 0.043699275 0)
(0.85671779 0.043699275 0)
(0.85671779 0.043699275 0)
(0.85671779 0.043699266 2.0359076e-21)
(0.85671754 0.043699183 0)
(0.85671437 0.043699315 0)
(0.85671685 0.04371134 0)
(0.85872308 0.047146019 0)
(0.85671779 0.043699275 0)
(0.85671779 0.043699275 0)
(0.85671779 0.043699275 0)
(0.85671779 0.043699275 0)
(0.85671779 0.043699275 0)
(0.85671779 0.043699272 -2.0362282e-21)
(0.85671735 0.043699079 0)
(0.8567032 0.043698737 0)
(0.85671076 0.043712252 0)
(0.85802281 0.047466426 0)
(0.85671779 0.043699275 0)
(0.85671779 0.043699275 0)
(0.85671779 0.043699275 0)
(0.85671779 0.043699275 0)
(0.85671779 0.043699275 0)
(0.8567178 0.043699275 1.0182798e-21)
(0.85671777 0.043699037 0)
(0.85670288 0.043697901 0)