# Force and moment coefficients
# dragDir     : (9.987016e-01 5.094156e-02 0.000000e+00)
# sideDir     : (0.000000e+00 0.000000e+00 -1.000000e+00)
# liftDir     : (-5.094156e-02 9.987016e-01 0.000000e+00)
# rollAxis    : (9.987016e-01 5.094156e-02 0.000000e+00)
# pitchAxis   : (0.000000e+00 0.000000e+00 -1.000000e+00)
# yawAxis     : (-5.094156e-02 9.987016e-01 0.000000e+00)
# magUInf     : 8.578316e-01
# lRef        : 1.000000e+00
# Aref        : 1.000000e+00
# CofR        : (0.000000e+00 0.000000e+00 0.000000e+00)
#
# Time        	Cd            	Cd(f)         	Cd(r)         	Cl            	Cl(f)         	Cl(r)         	CmPitch       	CmRoll        	CmYaw         	Cs            	Cs(f)         	Cs(r)         
0.000120005   	8.854212e-03	-1.889288e-03	1.074350e-02	1.263279e-02	-8.915024e-03	2.154781e-02	-1.523142e-02	-6.316394e-03	4.427106e-03	-3.628243e-20	4.427106e-03	-4.427106e-03
0.000264017   	1.862302e-02	-4.359475e-03	2.298250e-02	2.734197e-02	-1.925462e-02	4.659659e-02	-3.292560e-02	-1.367099e-02	9.311511e-03	-3.597050e-20	9.311511e-03	-9.311511e-03
0.000434708   	2.971245e-02	-6.902224e-03	3.661468e-02	4.351690e-02	-3.068502e-02	7.420192e-02	-5.244347e-02	-2.175845e-02	1.485623e-02	-3.562407e-20	1.485623e-02	-1.485623e-02
