# Force and moment coefficients
# dragDir     : (9.987016e-01 5.094156e-02 0.000000e+00)
# sideDir     : (0.000000e+00 0.000000e+00 -1.000000e+00)
# liftDir     : (-5.094156e-02 9.987016e-01 0.000000e+00)
# rollAxis    : (9.987016e-01 5.094156e-02 0.000000e+00)
# pitchAxis   : (0.000000e+00 0.000000e+00 -1.000000e+00)
# yawAxis     : (-5.094156e-02 9.987016e-01 0.000000e+00)
# magUInf     : 8.578316e-01
# lRef        : 1.000000e+00
# Aref        : 1.000000e+00
# CofR        : (0.000000e+00 0.000000e+00 0.000000e+00)
#
# Time        	Cd            	Cd(f)         	Cd(r)         	Cl            	Cl(f)         	Cl(r)         	CmPitch       	CmRoll        	CmYaw         	Cs            	Cs(f)         	Cs(r)         
0.000120005   	1.181605e-01	2.369307e-02	9.446740e-02	7.077433e-02	-2.134461e-02	9.211894e-02	-5.673177e-02	-3.538716e-02	5.908023e-02	2.539694e-18	5.908023e-02	-5.908023e-02
0.000260201   	1.836781e-01	4.922753e-02	1.344506e-01	8.522308e-02	-3.176603e-02	1.169891e-01	-7.437757e-02	-4.261154e-02	9.183907e-02	2.513943e-18	9.183907e-02	-9.183907e-02
0.00042057    	1.984457e-01	5.621324e-02	1.422324e-01	8.601920e-02	-3.745289e-02	1.234721e-01	-8.046249e-02	-4.300960e-02	9.922285e-02	3.973729e-19	9.922285e-02	-9.922285e-02
