/*--------------------------------*- C++ -*----------------------------------*\
| =========                 |                                                 |
| \\      /  F ield         | OpenFOAM: The Open Source CFD Toolbox           |
|  \\    /   O peration     | Version:  2206                                  |
|   \\  /    A nd           | Website:  www.openfoam.com                      |
|    \\/     M anipulation  |                                                 |
\*---------------------------------------------------------------------------*/
FoamFile
{
    version     2.0;
    format      ascii;
    arch        "LSB;label=32;scalar=64";
    class       volScalarField;
    location    "0.02";
    object      alphat;
}
// * * * * * * * * * * * * * * * * * * * * * * * * * * * * * * * * * * * * * //

dimensions      [1 -1 -1 0 0 0 0];

internalField   nonuniform List<scalar> 
1396
(
2.7772295e-08
2.7772295e-08
2.7772295e-08
2.7772295e-08
2.7772295e-08
2.7772295e-08
2.7772295e-08
2.7772295e-08
2.7772295e-08
2.7772295e-08
2.7772295e-08
2.7772295e-08
2.7772295e-08
2.7772295e-08
2.7772295e-08
2.7772294e-08
2.7772294e-08
2.7772293e-08
2.7772292e-08
2.7772288e-08
2.7772275e-08
2.7772295e-08
2.7772295e-08
2.7772295e-08
2.7772295e-08
2.7772295e-08
2.7772295e-08
2.7772295e-08
2.7772295e-08
2.7772294e-08
2.7772294e-08
2.7772293e-08
2.7772292e-08
2.7772288e-08
2.7772275e-08
2.7772295e-08
2.7772295e-08
2.7772295e-08
2.7772295e-08
2.7772295e-08
2.7772295e-08
2.7772295e-08
2.7772295e-08
2.7772294e-08
2.7772294e-08
2.7772293e-08
2.7772292e-08
2.7772288e-08
2.7772275e-08
2.7772295e-08
2.7772295e-08
2.7772295e-08
2.7772295e-08
2.7772295e-08
2.7772295e-08
2.7772295e-08
2.7772295e-08
2.7772294e-08
2.7772294e-08
2.7772293e-08
2.7772292e-08
2.7772288e-08
2.7772274e-08
2.7772295e-08
2.7772295e-08
2.7772295e-08
2.7772295e-08
2.7772295e-08
2.7772295e-08
2.7772295e-08
2.7772295e-08
2.7772294e-08
2.7772294e-08
2.7772293e-08
2.7772292e-08
2.7772288e-08
2.7772274e-08
2.7772295e-08
2.7772295e-08
2.7772295e-08
2.7772295e-08
2.7772295e-08
2.7772295e-08
2.7772295e-08
2.7772295e-08
2.7772294e-08
2.7772294e-08
2.7772293e-08
2.7772292e-08
2.7772288e-08
2.7772274e-08
2.7772295e-08
2.7772295e-08
2.7772295e-08
2.7772295e-08
2.7772295e-08
2.7772295e-08
2.7772295e-08
2.7772295e-08
2.7772294e-08
2.7772294e-08
2.7772293e-08
2.7772292e-08
2.7772288e-08
2.7772274e-08
2.7772295e-08
2.7772295e-08
2.7772295e-08
2.7772295e-08
2.7772295e-08
2.7772295e-08
2.7772295e-08
2.7772295e-08
2.7772294e-08
2.7772294e-08
2.7772293e-08
2.7772292e-08
2.7772288e-08
2.7772274e-08
2.7772295e-08
2.7772295e-08
2.7772295e-08
2.7772295e-08
2.7772295e-08
2.7772295e-08
2.7772295e-08
2.7772295e-08
2.7772294e-08
2.7772294e-08
2.7772293e-08
2.7772292e-08
2.7772288e-08
2.7772274e-08
2.7772295e-08
2.7772295e-08
2.7772295e-08
2.7772295e-08
2.7772295e-08
2.7772295e-08
2.7772295e-08
2.7772295e-08
2.7772294e-08
2.7772294e-08
2.7772293e-08
2.7772292e-08
2.7772288e-08
2.7772274e-08
2.7772295e-08
2.7772295e-08
2.7772295e-08
2.7772295e-08
2.7772295e-08
2.7772295e-08
2.7772295e-08
2.7772295e-08
2.7772294e-08
2.7772294e-08
2.7772293e-08
2.7772292e-08
2.7772288e-08
2.7772274e-08
2.7772295e-08
2.7772295e-08
2.7772295e-08
2.7772295e-08
2.7772295e-08
2.7772295e-08
2.7772295e-08
2.7772295e-08
2.7772294e-08
2.7772294e-08
2.7772293e-08
2.7772292e-08
2.7772288e-08
2.7772274e-08
2.7772295e-08
2.7772295e-08
2.7772295e-08
2.7772295e-08
2.7772295e-08
2.7772295e-08
2.7772295e-08
2.7772295e-08
2.7772294e-08
2.7772294e-08
2.7772293e-08
2.7772292e-08
2.7772288e-08
2.7772274e-08
2.7772295e-08
2.7772295e-08
2.7772295e-08
2.7772295e-08
2.7772295e-08
2.7772295e-08
2.7772295e-08
2.7772295e-08
2.7772294e-08
2.7772294e-08
2.7772293e-08
2.7772292e-08
2.7772288e-08
2.7772274e-08
2.7772295e-08
2.7772295e-08
2.7772295e-08
2.7772295e-08
2.7772295e-08
2.7772295e-08
2.7772295e-08
2.7772295e-08
2.7772294e-08
2.7772294e-08
2.7772293e-08
2.7772292e-08
2.7772288e-08
2.7772274e-08
2.7772295e-08
2.7772295e-08
2.7772295e-08
2.7772295e-08
2.7772295e-08
2.7772295e-08
2.7772295e-08
2.7772295e-08
2.7772294e-08
2.7772294e-08
2.7772293e-08
2.7772292e-08
2.7772288e-08
2.7772274e-08
2.7772295e-08
2.7772295e-08
2.7772295e-08
2.7772295e-08
2.7772295e-08
2.7772295e-08
2.7772295e-08
2.7772295e-08
2.7772294e-08
2.7772294e-08
2.7772293e-08
2.7772292e-08
2.7772288e-08
2.7772274e-08
2.7772273e-08
2.7772273e-08
2.7772273e-08
2.7772273e-08
2.7772273e-08
2.7772274e-08
2.7772274e-08
2.7772274e-08
2.7772275e-08
2.7772275e-08
2.7772288e-08
2.7772288e-08
2.7772288e-08
2.7772288e-08
2.7772288e-08
2.7772288e-08
2.7772288e-08
2.7772288e-08
2.7772288e-08
2.7772288e-08
2.7772292e-08
2.7772292e-08
2.7772292e-08
2.7772292e-08
2.7772292e-08
2.7772292e-08
2.7772292e-08
2.7772292e-08
2.7772292e-08
2.7772292e-08
2.7772293e-08
2.7772293e-08
2.7772293e-08
2.7772293e-08
2.7772293e-08
2.7772293e-08
2.7772293e-08
2.7772293e-08
2.7772293e-08
2.7772293e-08
2.7772294e-08
2.7772294e-08
2.7772294e-08
2.7772294e-08
2.7772294e-08
2.7772294e-08
2.7772294e-08
2.7772294e-08
2.7772294e-08
2.7772294e-08
2.7772294e-08
2.7772294e-08
2.7772294e-08
2.7772294e-08
2.7772294e-08
2.7772294e-08
2.7772294e-08
2.7772294e-08
2.7772294e-08
2.7772294e-08
2.7772295e-08
2.7772295e-08
2.7772295e-08
2.7772295e-08
2.7772295e-08
2.7772295e-08
2.7772295e-08
2.7772295e-08
2.7772295e-08
2.7772295e-08
2.7772295e-08
2.7772295e-08
2.7772295e-08
2.7772295e-08
2.7772295e-08
2.7772295e-08
2.7772295e-08
2.7772295e-08
2.7772295e-08
2.7772295e-08
2.7772295e-08
2.7772295e-08
2.7772295e-08
2.7772295e-08
2.7772295e-08
2.7772295e-08
2.7772295e-08
2.7772295e-08
2.7772295e-08
2.7772295e-08
2.7772295e-08
2.7772295e-08
2.7772295e-08
2.7772295e-08
2.7772295e-08
2.7772295e-08
2.7772295e-08
2.7772295e-08
2.7772295e-08
2.7772295e-08
2.7772295e-08
2.7772295e-08
2.7772295e-08
2.7772295e-08
2.7772295e-08
2.7772295e-08
2.7772295e-08
2.7772295e-08
2.7772295e-08
2.7772295e-08
2.7772295e-08
2.7772295e-08
2.7772295e-08
2.7772295e-08
2.7772295e-08
2.7772295e-08
2.7772295e-08
2.7772295e-08
2.7772295e-08
2.7772295e-08
2.7772295e-08
2.7772295e-08
2.7772295e-08
2.7772295e-08
2.7772295e-08
2.7772295e-08
2.7772295e-08
2.7772295e-08
2.7772295e-08
2.7772295e-08
2.7772295e-08
2.7772295e-08
2.7772295e-08
2.7772295e-08
2.7772295e-08
2.7772295e-08
2.7772295e-08
2.7772295e-08
2.7772295e-08
2.7772295e-08
2.7772273e-08
2.7772288e-08
2.7772292e-08
2.7772293e-08
2.7772294e-08
2.7772294e-08
2.7772295e-08
2.7772295e-08
2.7772295e-08
2.7772295e-08
2.7772295e-08
2.7772295e-08
2.7772295e-08
2.7772295e-08
2.7772273e-08
2.7772288e-08
2.7772292e-08
2.7772293e-08
2.7772294e-08
2.7772294e-08
2.7772295e-08
2.7772295e-08
2.7772295e-08
2.7772295e-08
2.7772295e-08
2.7772295e-08
2.7772295e-08
2.7772295e-08
2.7772273e-08
2.7772288e-08
2.7772292e-08
2.7772293e-08
2.7772294e-08
2.7772294e-08
2.7772295e-08
2.7772295e-08
2.7772295e-08
2.7772295e-08
2.7772295e-08
2.7772295e-08
2.7772295e-08
2.7772295e-08
2.7772273e-08
2.7772288e-08
2.7772292e-08
2.7772293e-08
2.7772294e-08
2.7772294e-08
2.7772295e-08
2.7772295e-08
2.7772295e-08
2.7772295e-08
2.7772295e-08
2.7772295e-08
2.7772295e-08
2.7772295e-08
2.7772273e-08
2.7772288e-08
2.7772292e-08
2.7772293e-08
2.7772294e-08
2.7772294e-08
2.7772295e-08
2.7772295e-08
2.7772295e-08
2.7772295e-08
2.7772295e-08
2.7772295e-08
2.7772295e-08
2.7772295e-08
2.7772273e-08
2.7772288e-08
2.7772292e-08
2.7772293e-08
2.7772294e-08
2.7772294e-08
2.7772295e-08
2.7772295e-08
2.7772295e-08
2.7772295e-08
2.7772295e-08
2.7772295e-08
2.7772295e-08
2.7772295e-08
2.7772273e-08
2.7772288e-08
2.7772292e-08
2.7772293e-08
2.7772294e-08
2.7772294e-08
2.7772295e-08
2.7772295e-08
2.7772295e-08
2.7772295e-08
2.7772295e-08
2.7772295e-08
2.7772295e-08
2.7772295e-08
2.7772273e-08
2.7772288e-08
2.7772292e-08
2.7772293e-08
2.7772294e-08
2.7772294e-08
2.7772295e-08
2.7772295e-08
2.7772295e-08
2.7772295e-08
2.7772295e-08
2.7772295e-08
2.7772295e-08
2.7772295e-08
2.7772273e-08
2.7772288e-08
2.7772292e-08
2.7772293e-08
2.7772294e-08
2.7772294e-08
2.7772295e-08
2.7772295e-08
2.7772295e-08
2.7772295e-08
2.7772295e-08
2.7772295e-08
2.7772295e-08
2.7772295e-08
2.7772273e-08
2.7772288e-08
2.7772292e-08
2.7772293e-08
2.7772294e-08
2.7772294e-08
2.7772295e-08
2.7772295e-08
2.7772295e-08
2.7772295e-08
2.7772295e-08
2.7772295e-08
2.7772295e-08
2.7772295e-08
2.7772273e-08
2.7772288e-08
2.7772292e-08
2.7772293e-08
2.7772294e-08
2.7772294e-08
2.7772295e-08
2.7772295e-08
2.7772295e-08
2.7772295e-08
2.7772295e-08
2.7772295e-08
2.7772295e-08
2.7772295e-08
2.7772273e-08
2.7772288e-08
2.7772292e-08
2.7772293e-08
2.7772294e-08
2.7772294e-08
2.7772295e-08
2.7772295e-08
2.7772295e-08
2.7772295e-08
2.7772295e-08
2.7772295e-08
2.7772295e-08
2.7772295e-08
2.7772273e-08
2.7772288e-08
2.7772292e-08
2.7772293e-08
2.7772294e-08
2.7772294e-08
2.7772295e-08
2.7772295e-08
2.7772295e-08
2.7772295e-08
2.7772295e-08
2.7772295e-08
2.7772295e-08
2.7772295e-08
2.7772273e-08
2.7772288e-08
2.7772292e-08
2.7772293e-08
2.7772294e-08
2.7772294e-08
2.7772295e-08
2.7772295e-08
2.7772295e-08
2.7772295e-08
2.7772295e-08
2.7772295e-08
2.7772295e-08
2.7772295e-08
2.7772295e-08
2.7772295e-08
2.7772295e-08
2.7772295e-08
2.7772295e-08
2.7772295e-08
2.7772294e-08
2.7772294e-08
2.7772293e-08
2.7772292e-08
2.7772288e-08
2.7772273e-08
2.7772295e-08
2.7772295e-08
2.7772295e-08
2.7772295e-08
2.7772294e-08
2.7772294e-08
2.7772293e-08
2.7772292e-08
2.7772288e-08
2.7772273e-08
2.7772295e-08
2.7772295e-08
2.7772295e-08
2.7772294e-08
2.7772294e-08
2.7772293e-08
2.7772292e-08
2.7772288e-08
2.7772273e-08
2.7772295e-08
2.7772294e-08
2.7772294e-08
2.7772293e-08
2.7772292e-08
2.7772288e-08
2.7772274e-08
2.7772294e-08
2.7772294e-08
2.7772293e-08
2.7772292e-08
2.7772288e-08
2.7772274e-08
2.7772293e-08
2.7772292e-08
2.7772288e-08
2.7772274e-08
2.7772292e-08
2.7772288e-08
2.7772274e-08
2.7772288e-08
2.7772274e-08
2.7772274e-08
2.1536422e-08
2.1270807e-08
2.1139824e-08
2.1058038e-08
2.1070118e-08
2.1140023e-08
2.1238669e-08
2.1360401e-08
2.1499502e-08
2.1652783e-08
2.6890824e-08
2.6886099e-08
2.6877117e-08
2.6864971e-08
2.6860051e-08
2.6862126e-08
2.6867264e-08
2.6875374e-08
2.6889049e-08
2.6908594e-08
2.7303394e-08
2.7294282e-08
2.7285655e-08
2.7282087e-08
2.7282499e-08
2.7281857e-08
2.728049e-08
2.7279401e-08
2.7280385e-08
2.7287008e-08
2.771986e-08
2.7718038e-08
2.7716488e-08
2.7715611e-08
2.7715225e-08
2.7715046e-08
2.7714858e-08
2.7714562e-08
2.7713954e-08
2.7713173e-08
2.7769318e-08
2.7769224e-08
2.7769138e-08
2.776909e-08
2.7769059e-08
2.7769028e-08
2.7768998e-08
2.7768968e-08
2.7768948e-08
2.7768949e-08
2.7771817e-08
2.7771811e-08
2.77718e-08
2.7771794e-08
2.7771788e-08
2.7771782e-08
2.7771777e-08
2.7771771e-08
2.7771762e-08
2.7771761e-08
2.7772035e-08
2.7772034e-08
2.7772029e-08
2.7772024e-08
2.7772024e-08
2.7772022e-08
2.7772017e-08
2.7772015e-08
2.7772013e-08
2.777201e-08
2.7772103e-08
2.7772102e-08
2.7772097e-08
2.7772097e-08
2.7772095e-08
2.7772094e-08
2.7772092e-08
2.7772089e-08
2.7772088e-08
2.7772086e-08
2.7772144e-08
2.7772145e-08
2.7772142e-08
2.7772142e-08
2.7772141e-08
2.7772138e-08
2.7772137e-08
2.7772136e-08
2.7772134e-08
2.7772133e-08
2.7772175e-08
2.7772175e-08
2.7772174e-08
2.7772173e-08
2.7772172e-08
2.7772171e-08
2.7772169e-08
2.7772169e-08
2.7772167e-08
2.7772166e-08
2.7772197e-08
2.7772198e-08
2.7772196e-08
2.7772196e-08
2.7772195e-08
2.7772194e-08
2.7772193e-08
2.7772192e-08
2.7772191e-08
2.777219e-08
2.7772214e-08
2.7772214e-08
2.7772213e-08
2.7772213e-08
2.7772212e-08
2.7772211e-08
2.777221e-08
2.7772209e-08
2.7772209e-08
2.7772208e-08
2.7772227e-08
2.7772227e-08
2.7772226e-08
2.7772226e-08
2.7772225e-08
2.7772224e-08
2.7772224e-08
2.7772223e-08
2.7772223e-08
2.7772222e-08
2.7772237e-08
2.7772237e-08
2.7772236e-08
2.7772236e-08
2.7772235e-08
2.7772235e-08
2.7772234e-08
2.7772233e-08
2.7772233e-08
2.7772233e-08
2.2012917e-08
2.2537595e-08
2.3125784e-08
2.3666936e-08
2.4186614e-08
2.4740718e-08
2.5346461e-08
2.5944517e-08
2.6429908e-08
2.6793257e-08
2.710661e-08
2.7402136e-08
2.7662348e-08
2.7894226e-08
2.6960428e-08
2.7026557e-08
2.7058174e-08
2.7094784e-08
2.7131067e-08
2.7167747e-08
2.7202335e-08
2.7232721e-08
2.7256933e-08
2.7276107e-08
2.7296152e-08
2.7313887e-08
2.7329864e-08
2.7342811e-08
2.730535e-08
2.733916e-08
2.7361069e-08
2.7383663e-08
2.7406267e-08
2.7430198e-08
2.7453386e-08
2.7472925e-08
2.7488047e-08
2.7500461e-08
2.7511895e-08
2.7522909e-08
2.7534894e-08
2.7549376e-08
2.7713493e-08
2.7720807e-08
2.7725069e-08
2.7729104e-08
2.7732987e-08
2.7736967e-08
2.7740697e-08
2.7743701e-08
2.7745865e-08
2.7747549e-08
2.7749054e-08
2.7750526e-08
2.7752151e-08
2.7754205e-08
2.7768962e-08
2.7769396e-08
2.7769605e-08
2.7769821e-08
2.7770025e-08
2.7770228e-08
2.7770402e-08
2.7770542e-08
2.7770644e-08
2.7770726e-08
2.77708e-08
2.7770875e-08
2.7770963e-08
2.7771085e-08
2.777176e-08
2.777179e-08
2.7771804e-08
2.7771816e-08
2.777183e-08
2.7771845e-08
2.7771852e-08
2.7771861e-08
2.7771867e-08
2.7771873e-08
2.7771879e-08
2.7771885e-08
2.7771889e-08
2.7771899e-08
2.7772008e-08
2.7772012e-08
2.7772015e-08
2.7772015e-08
2.7772017e-08
2.777202e-08
2.7772019e-08
2.7772021e-08
2.7772022e-08
2.7772024e-08
2.7772025e-08
2.7772027e-08
2.7772026e-08
2.7772029e-08
2.7772085e-08
2.7772086e-08
2.7772087e-08
2.7772088e-08
2.7772089e-08
2.7772091e-08
2.777209e-08
2.7772091e-08
2.7772092e-08
2.7772093e-08
2.7772094e-08
2.7772096e-08
2.7772096e-08
2.7772095e-08
2.7772131e-08
2.7772134e-08
2.7772133e-08
2.7772135e-08
2.7772135e-08
2.7772136e-08
2.7772136e-08
2.7772137e-08
2.7772137e-08
2.7772138e-08
2.7772139e-08
2.777214e-08
2.7772141e-08
2.777214e-08
2.7772165e-08
2.7772167e-08
2.7772166e-08
2.7772167e-08
2.7772167e-08
2.7772168e-08
2.7772168e-08
2.7772168e-08
2.7772169e-08
2.777217e-08
2.7772171e-08
2.7772171e-08
2.7772172e-08
2.7772171e-08
2.7772189e-08
2.777219e-08
2.777219e-08
2.7772191e-08
2.7772191e-08
2.7772192e-08
2.7772191e-08
2.7772192e-08
2.7772192e-08
2.7772193e-08
2.7772193e-08
2.7772194e-08
2.7772194e-08
2.7772194e-08
2.7772207e-08
2.7772208e-08
2.7772208e-08
2.7772209e-08
2.7772209e-08
2.7772209e-08
2.7772209e-08
2.7772209e-08
2.7772209e-08
2.777221e-08
2.7772211e-08
2.7772211e-08
2.7772212e-08
2.7772212e-08
2.7772221e-08
2.7772222e-08
2.7772222e-08
2.7772222e-08
2.7772222e-08
2.7772222e-08
2.7772222e-08
2.7772222e-08
2.7772223e-08
2.7772223e-08
2.7772224e-08
2.7772224e-08
2.7772225e-08
2.7772225e-08
2.7772232e-08
2.7772233e-08
2.7772233e-08
2.7772233e-08
2.7772233e-08
2.7772233e-08
2.7772233e-08
2.7772233e-08
2.7772233e-08
2.7772234e-08
2.7772234e-08
2.7772235e-08
2.7772235e-08
2.7772235e-08
2.7772243e-08
2.7772234e-08
2.7772223e-08
2.7772208e-08
2.7772189e-08
2.7772162e-08
2.7772125e-08
2.7772068e-08
2.7771979e-08
2.7771872e-08
2.7773057e-08
2.7772241e-08
2.7772231e-08
2.777222e-08
2.7772205e-08
2.7772184e-08
2.7772158e-08
2.7772119e-08
2.7772061e-08
2.7771969e-08
2.7771867e-08
2.7773065e-08
2.7827516e-08
2.7840364e-08
3.795409e-08
2.7772239e-08
2.7772229e-08
2.7772217e-08
2.7772202e-08
2.7772181e-08
2.7772153e-08
2.7772114e-08
2.7772054e-08
2.7771959e-08
2.7771836e-08
2.7772068e-08
2.779456e-08
2.7822813e-08
3.6922574e-08
2.7772237e-08
2.7772228e-08
2.7772215e-08
2.7772199e-08
2.7772178e-08
2.7772149e-08
2.7772109e-08
2.7772048e-08
2.777195e-08
2.7771792e-08
2.7771533e-08
2.7771911e-08
2.7767987e-08
3.5730598e-08
2.7772236e-08
2.7772226e-08
2.7772214e-08
2.7772197e-08
2.7772176e-08
2.7772146e-08
2.7772106e-08
2.7772042e-08
2.7771942e-08
2.7771748e-08
2.7770458e-08
2.77419e-08
2.76982e-08
3.4341305e-08
2.7772235e-08
2.7772225e-08
2.7772213e-08
2.7772196e-08
2.7772174e-08
2.7772144e-08
2.7772103e-08
2.7772038e-08
2.7771935e-08
2.7771696e-08
2.7768707e-08
2.7703949e-08
2.7618243e-08
3.2849853e-08
2.7772235e-08
2.7772225e-08
2.7772212e-08
2.7772195e-08
2.7772173e-08
2.7772142e-08
2.7772101e-08
2.7772035e-08
2.7771929e-08
2.7771618e-08
2.7766306e-08
2.7663262e-08
2.7537893e-08
3.1411383e-08
2.7772234e-08
2.7772224e-08
2.7772211e-08
2.7772194e-08
2.7772172e-08
2.7772141e-08
2.7772098e-08
2.7772034e-08
2.7771924e-08
2.7771524e-08
2.7763449e-08
2.7626282e-08
2.7465102e-08
3.0249801e-08
2.7772234e-08
2.7772224e-08
2.7772211e-08
2.7772194e-08
2.7772171e-08
2.7772141e-08
2.7772097e-08
2.7772031e-08
2.7771922e-08
2.777144e-08
2.7760933e-08
2.7598614e-08
2.7414011e-08
2.9349064e-08
2.7772235e-08
2.7772224e-08
2.7772211e-08
2.7772194e-08
2.7772172e-08
2.7772141e-08
2.7772096e-08
2.7772029e-08
2.7771914e-08
2.777137e-08
2.7758818e-08
2.7575971e-08
2.7360798e-08
2.8542213e-08
2.7772243e-08
2.7772234e-08
2.7772223e-08
2.7772208e-08
2.7772189e-08
2.7772162e-08
2.7772124e-08
2.7772067e-08
2.7771976e-08
2.7771784e-08
2.7769972e-08
2.7726799e-08
2.7671827e-08
3.3420391e-08
2.7772242e-08
2.7772233e-08
2.7772221e-08
2.7772207e-08
2.7772187e-08
2.777216e-08
2.7772121e-08
2.7772063e-08
2.7771969e-08
2.7771756e-08
2.7769222e-08
2.771194e-08
2.7639675e-08
3.2842777e-08
2.7772241e-08
2.7772231e-08
2.777222e-08
2.7772204e-08
2.7772184e-08
2.7772158e-08
2.7772118e-08
2.7772059e-08
2.7771964e-08
2.7771724e-08
2.7768343e-08
2.7696618e-08
2.7605819e-08
3.225455e-08
2.777224e-08
2.777223e-08
2.7772218e-08
2.7772203e-08
2.7772182e-08
2.7772155e-08
2.7772116e-08
2.7772056e-08
2.7771959e-08
2.7771689e-08
2.7767328e-08
2.7680566e-08
2.7570538e-08
3.1657965e-08
2.7772239e-08
2.777223e-08
2.7772217e-08
2.7772202e-08
2.7772181e-08
2.7772153e-08
2.7772112e-08
2.7772054e-08
2.7771954e-08
2.777165e-08
2.7766154e-08
2.7663563e-08
2.7533191e-08
3.1044037e-08
2.7772239e-08
2.7772229e-08
2.7772217e-08
2.7772201e-08
2.777218e-08
2.7772151e-08
2.777211e-08
2.7772049e-08
2.777195e-08
2.7771605e-08
2.7764793e-08
2.7645454e-08
2.7492814e-08
3.0402613e-08
2.7772238e-08
2.7772229e-08
2.7772216e-08
2.77722e-08
2.7772179e-08
2.777215e-08
2.7772109e-08
2.7772047e-08
2.7771947e-08
2.7771554e-08
2.7763226e-08
2.7626342e-08
2.7451811e-08
2.9734476e-08
2.7772238e-08
2.7772228e-08
2.7772216e-08
2.77722e-08
2.7772179e-08
2.777215e-08
2.7772108e-08
2.7772046e-08
2.7771941e-08
2.7771498e-08
2.77615e-08
2.7606648e-08
2.7409507e-08
2.9050526e-08
2.7772238e-08
2.7772228e-08
2.7772216e-08
2.77722e-08
2.7772179e-08
2.7772149e-08
2.7772108e-08
2.7772046e-08
2.7771938e-08
2.7771434e-08
2.775949e-08
2.7585353e-08
2.7363138e-08
2.8297455e-08
2.7772238e-08
2.7772229e-08
2.7772216e-08
2.7772201e-08
2.7772179e-08
2.777215e-08
2.7772108e-08
2.7772045e-08
2.7771934e-08
2.777135e-08
2.7757011e-08
2.7562275e-08
2.7308895e-08
2.7488449e-08
2.7772238e-08
2.7772238e-08
2.7772238e-08
2.7772238e-08
2.7772238e-08
2.7772238e-08
2.7772239e-08
2.7772228e-08
2.7772228e-08
2.7772228e-08
2.7772228e-08
2.7772228e-08
2.7772229e-08
2.7772229e-08
2.7772229e-08
2.7772216e-08
2.7772216e-08
2.7772216e-08
2.7772216e-08
2.7772216e-08
2.7772216e-08
2.7772216e-08
2.7772217e-08
2.77722e-08
2.77722e-08
2.77722e-08
2.77722e-08
2.77722e-08
2.77722e-08
2.77722e-08
2.7772201e-08
2.7772201e-08
2.7772179e-08
2.7772178e-08
2.7772178e-08
2.7772178e-08
2.7772178e-08
2.7772179e-08
2.7772179e-08
2.7772179e-08
2.777218e-08
2.7772149e-08
2.7772149e-08
2.7772149e-08
2.7772149e-08
2.7772149e-08
2.7772149e-08
2.7772149e-08
2.7772149e-08
2.777215e-08
2.777215e-08
2.7772107e-08
2.7772107e-08
2.7772106e-08
2.7772106e-08
2.7772106e-08
2.7772106e-08
2.7772107e-08
2.7772107e-08
2.7772108e-08
2.7772108e-08
2.7772041e-08
2.7772042e-08
2.7772041e-08
2.7772041e-08
2.7772041e-08
2.7772041e-08
2.7772041e-08
2.7772042e-08
2.7772043e-08
2.7772044e-08
2.7772045e-08
2.777188e-08
2.7771884e-08
2.7771886e-08
2.7771889e-08
2.7771893e-08
2.7771897e-08
2.7771902e-08
2.7771906e-08
2.7771911e-08
2.7771917e-08
2.7771923e-08
2.7770196e-08
2.7770264e-08
2.7770332e-08
2.7770409e-08
2.7770493e-08
2.7770577e-08
2.7770668e-08
2.7770759e-08
2.7770852e-08
2.7770944e-08
2.7771037e-08
2.7771142e-08
2.7731805e-08
2.7733327e-08
2.7734912e-08
2.7736672e-08
2.7738583e-08
2.7740509e-08
2.7742583e-08
2.7744675e-08
2.7746817e-08
2.7748955e-08
2.7751057e-08
2.775327e-08
2.7391876e-08
2.7399588e-08
2.7407757e-08
2.7417194e-08
2.7427952e-08
2.7440001e-08
2.745271e-08
2.7466664e-08
2.7481382e-08
2.7497041e-08
2.751326e-08
2.7529492e-08
2.7545481e-08
2.6925673e-08
2.6939741e-08
2.6957848e-08
2.6978134e-08
2.7000525e-08
2.7025666e-08
2.7053808e-08
2.7082479e-08
2.7113493e-08
2.7144493e-08
2.7176778e-08
2.7209211e-08
2.7244085e-08
2.728016e-08
2.2262977e-08
2.2440045e-08
2.2669263e-08
2.2924341e-08
2.3205507e-08
2.351452e-08
2.386492e-08
2.421919e-08
2.461195e-08
2.5022038e-08
2.5457589e-08
2.5913458e-08
2.6359981e-08
2.6753277e-08
)
;

boundaryField
{
    Side
    {
        type            empty;
    }
    Inlet
    {
        type            calculated;
        value           nonuniform List<scalar> 
42
(
2.7772295e-08
2.7772295e-08
2.7772295e-08
2.7772295e-08
2.7772295e-08
2.7772295e-08
2.7772295e-08
2.7772295e-08
2.7772295e-08
2.7772295e-08
2.7772295e-08
2.7772295e-08
2.7772295e-08
2.7772295e-08
2.7772295e-08
2.7772295e-08
2.7772295e-08
2.7772295e-08
3.9592188e-07
3.9592188e-07
3.9592188e-07
3.9592188e-07
3.9592188e-07
3.9592188e-07
3.9592188e-07
3.9592188e-07
3.9592188e-07
3.9592188e-07
3.9592188e-07
3.9592188e-07
3.9592188e-07
3.9592188e-07
3.9592188e-07
3.9592188e-07
3.9592188e-07
3.9592188e-07
3.9592188e-07
3.9592188e-07
3.9592188e-07
3.9592188e-07
3.9592188e-07
3.9592188e-07
)
;
    }
    Airfoil
    {
        type            compressible::alphatWallFunction;
        value           nonuniform List<scalar> 
57
(
1.4290761e-05
1.4193495e-05
1.4117818e-05
1.4059365e-05
1.4014053e-05
1.3977712e-05
1.3944962e-05
1.3918929e-05
1.3901222e-05
1.3892564e-05
1.3881176e-05
1.4034003e-05
1.4165623e-05
1.4283411e-05
1.4400745e-05
1.4523656e-05
1.464189e-05
1.4740043e-05
1.481527e-05
1.4879978e-05
1.4943163e-05
1.5008864e-05
1.5079578e-05
1.5156736e-05
1.7253022e-05
1.694045e-05
1.6642707e-05
1.6356672e-05
1.6083549e-05
1.583182e-05
1.5622434e-05
1.5470951e-05
1.5370651e-05
1.6941726e-05
1.673501e-05
1.6544783e-05
1.6370058e-05
1.6210079e-05
1.606402e-05
1.5931946e-05
1.5816954e-05
1.5716201e-05
1.5627042e-05
1.478198e-05
1.4795753e-05
1.4817884e-05
1.4846747e-05
1.4883065e-05
1.4928274e-05
1.4980733e-05
1.5040063e-05
1.5109259e-05
1.5185628e-05
1.5270159e-05
1.536044e-05
1.5453942e-05
1.5551351e-05
)
;
    }
    Outlet
    {
        type            zeroGradient;
    }
    Flap
    {
        type            compressible::alphatWallFunction;
        value           nonuniform List<scalar> 0();
    }
    procBoundary1to0
    {
        type            processor;
        value           nonuniform List<scalar> 
58
(
2.7772295e-08
2.7772295e-08
2.7772295e-08
2.7772295e-08
2.7772295e-08
2.7772295e-08
2.7772295e-08
2.7772295e-08
2.7772295e-08
2.7772294e-08
2.7772294e-08
2.7772293e-08
2.7772292e-08
2.7772289e-08
2.7772275e-08
2.7772275e-08
2.7772289e-08
2.7772292e-08
2.7772293e-08
2.7772294e-08
2.7772294e-08
2.7772295e-08
2.7772295e-08
2.7772295e-08
2.7772295e-08
2.7772295e-08
2.7772295e-08
2.7772295e-08
2.7772295e-08
2.7772244e-08
2.7772236e-08
2.7772225e-08
2.7772211e-08
2.7772192e-08
2.7772167e-08
2.777213e-08
2.7772076e-08
2.7771989e-08
2.7771899e-08
2.7773031e-08
2.7839952e-08
2.7839952e-08
2.7869868e-08
3.8875514e-08
2.7772244e-08
2.7772235e-08
2.7772224e-08
2.777221e-08
2.7772191e-08
2.7772164e-08
2.7772127e-08
2.7772071e-08
2.7771982e-08
2.7771808e-08
2.7770574e-08
2.7740866e-08
2.7702123e-08
3.4042178e-08
)
;
    }
    procBoundary1to2
    {
        type            processor;
        value           nonuniform List<scalar> 
73
(
2.7772295e-08
2.7772295e-08
2.7772295e-08
2.7772295e-08
2.7772295e-08
2.7772295e-08
2.7772295e-08
2.7772295e-08
2.7772294e-08
2.7772294e-08
2.7772293e-08
2.7772292e-08
2.7772288e-08
2.7772274e-08
2.6921107e-08
2.2095174e-08
2.7772295e-08
2.7772295e-08
2.7772295e-08
2.7772295e-08
2.7772295e-08
2.7772295e-08
2.7772295e-08
2.7772295e-08
2.7772295e-08
2.7772295e-08
2.7772295e-08
2.7772295e-08
2.7772295e-08
2.7772294e-08
2.7772294e-08
2.7772294e-08
2.7772293e-08
2.7772293e-08
2.7772292e-08
2.7772292e-08
2.7772288e-08
2.7772288e-08
2.7772274e-08
2.7772274e-08
2.1689024e-08
2.6910378e-08
2.7321903e-08
2.7722977e-08
2.776949e-08
2.7771834e-08
2.7772038e-08
2.7772107e-08
2.7772148e-08
2.7772178e-08
2.7772199e-08
2.7772215e-08
2.7772228e-08
2.7772238e-08
2.7772238e-08
2.7772238e-08
2.7772229e-08
2.7772216e-08
2.7772216e-08
2.77722e-08
2.7772178e-08
2.7772178e-08
2.7772149e-08
2.7772108e-08
2.7772108e-08
2.7772044e-08
2.7771881e-08
2.7771881e-08
2.7770151e-08
2.7730738e-08
2.7730738e-08
2.7387935e-08
2.7387935e-08
)
;
    }
}


// ************************************************************************* //
