/*--------------------------------*- C++ -*----------------------------------*\
| =========                 |                                                 |
| \\      /  F ield         | OpenFOAM: The Open Source CFD Toolbox           |
|  \\    /   O peration     | Version:  2206                                  |
|   \\  /    A nd           | Website:  www.openfoam.com                      |
|    \\/     M anipulation  |                                                 |
\*---------------------------------------------------------------------------*/
FoamFile
{
    version     2.0;
    format      ascii;
    arch        "LSB;label=32;scalar=64";
    class       volScalarField;
    location    "0.02";
    object      nut;
}
// * * * * * * * * * * * * * * * * * * * * * * * * * * * * * * * * * * * * * //

dimensions      [0 2 -1 0 0 0 0];

internalField   nonuniform List<scalar> 
1396
(
2.7772322e-08
2.7772322e-08
2.7772322e-08
2.7772322e-08
2.7772322e-08
2.7772322e-08
2.7772322e-08
2.7772322e-08
2.7772322e-08
2.7772322e-08
2.7772322e-08
2.7772322e-08
2.7772322e-08
2.7772322e-08
2.7772321e-08
2.7772321e-08
2.7772321e-08
2.777232e-08
2.7772319e-08
2.7772315e-08
2.7772302e-08
2.7772322e-08
2.7772322e-08
2.7772322e-08
2.7772322e-08
2.7772322e-08
2.7772322e-08
2.7772322e-08
2.7772321e-08
2.7772321e-08
2.7772321e-08
2.777232e-08
2.7772319e-08
2.7772315e-08
2.7772301e-08
2.7772322e-08
2.7772322e-08
2.7772322e-08
2.7772322e-08
2.7772322e-08
2.7772322e-08
2.7772322e-08
2.7772321e-08
2.7772321e-08
2.7772321e-08
2.777232e-08
2.7772319e-08
2.7772315e-08
2.7772301e-08
2.7772322e-08
2.7772322e-08
2.7772322e-08
2.7772322e-08
2.7772322e-08
2.7772322e-08
2.7772322e-08
2.7772321e-08
2.7772321e-08
2.7772321e-08
2.777232e-08
2.7772319e-08
2.7772315e-08
2.7772301e-08
2.7772322e-08
2.7772322e-08
2.7772322e-08
2.7772322e-08
2.7772322e-08
2.7772322e-08
2.7772322e-08
2.7772321e-08
2.7772321e-08
2.7772321e-08
2.777232e-08
2.7772319e-08
2.7772315e-08
2.7772301e-08
2.7772322e-08
2.7772322e-08
2.7772322e-08
2.7772322e-08
2.7772322e-08
2.7772322e-08
2.7772322e-08
2.7772321e-08
2.7772321e-08
2.7772321e-08
2.777232e-08
2.7772319e-08
2.7772315e-08
2.7772301e-08
2.7772322e-08
2.7772322e-08
2.7772322e-08
2.7772322e-08
2.7772322e-08
2.7772322e-08
2.7772322e-08
2.7772321e-08
2.7772321e-08
2.7772321e-08
2.777232e-08
2.7772319e-08
2.7772315e-08
2.7772301e-08
2.7772322e-08
2.7772322e-08
2.7772322e-08
2.7772322e-08
2.7772322e-08
2.7772322e-08
2.7772322e-08
2.7772321e-08
2.7772321e-08
2.7772321e-08
2.777232e-08
2.7772319e-08
2.7772315e-08
2.7772301e-08
2.7772322e-08
2.7772322e-08
2.7772322e-08
2.7772322e-08
2.7772322e-08
2.7772322e-08
2.7772322e-08
2.7772321e-08
2.7772321e-08
2.7772321e-08
2.777232e-08
2.7772319e-08
2.7772315e-08
2.7772301e-08
2.7772322e-08
2.7772322e-08
2.7772322e-08
2.7772322e-08
2.7772322e-08
2.7772322e-08
2.7772322e-08
2.7772321e-08
2.7772321e-08
2.7772321e-08
2.777232e-08
2.7772319e-08
2.7772315e-08
2.7772301e-08
2.7772322e-08
2.7772322e-08
2.7772322e-08
2.7772322e-08
2.7772322e-08
2.7772322e-08
2.7772322e-08
2.7772321e-08
2.7772321e-08
2.7772321e-08
2.777232e-08
2.7772319e-08
2.7772315e-08
2.7772301e-08
2.7772322e-08
2.7772322e-08
2.7772322e-08
2.7772322e-08
2.7772322e-08
2.7772322e-08
2.7772322e-08
2.7772321e-08
2.7772321e-08
2.7772321e-08
2.777232e-08
2.7772319e-08
2.7772315e-08
2.77723e-08
2.7772322e-08
2.7772322e-08
2.7772322e-08
2.7772322e-08
2.7772322e-08
2.7772322e-08
2.7772322e-08
2.7772321e-08
2.7772321e-08
2.7772321e-08
2.777232e-08
2.7772319e-08
2.7772315e-08
2.77723e-08
2.7772322e-08
2.7772322e-08
2.7772322e-08
2.7772322e-08
2.7772322e-08
2.7772322e-08
2.7772322e-08
2.7772321e-08
2.7772321e-08
2.7772321e-08
2.777232e-08
2.7772319e-08
2.7772315e-08
2.77723e-08
2.7772322e-08
2.7772322e-08
2.7772322e-08
2.7772322e-08
2.7772322e-08
2.7772322e-08
2.7772322e-08
2.7772321e-08
2.7772321e-08
2.7772321e-08
2.777232e-08
2.7772319e-08
2.7772315e-08
2.77723e-08
2.7772322e-08
2.7772322e-08
2.7772322e-08
2.7772322e-08
2.7772322e-08
2.7772322e-08
2.7772322e-08
2.7772321e-08
2.7772321e-08
2.7772321e-08
2.777232e-08
2.7772319e-08
2.7772315e-08
2.77723e-08
2.7772322e-08
2.7772322e-08
2.7772322e-08
2.7772322e-08
2.7772322e-08
2.7772322e-08
2.7772322e-08
2.7772321e-08
2.7772321e-08
2.7772321e-08
2.777232e-08
2.7772318e-08
2.7772315e-08
2.77723e-08
2.77723e-08
2.77723e-08
2.77723e-08
2.77723e-08
2.77723e-08
2.77723e-08
2.77723e-08
2.7772301e-08
2.7772301e-08
2.7772302e-08
2.7772315e-08
2.7772315e-08
2.7772315e-08
2.7772315e-08
2.7772315e-08
2.7772315e-08
2.7772315e-08
2.7772315e-08
2.7772315e-08
2.7772315e-08
2.7772318e-08
2.7772318e-08
2.7772318e-08
2.7772318e-08
2.7772318e-08
2.7772319e-08
2.7772319e-08
2.7772319e-08
2.7772319e-08
2.7772319e-08
2.777232e-08
2.777232e-08
2.777232e-08
2.777232e-08
2.777232e-08
2.777232e-08
2.777232e-08
2.777232e-08
2.777232e-08
2.777232e-08
2.7772321e-08
2.7772321e-08
2.7772321e-08
2.7772321e-08
2.7772321e-08
2.7772321e-08
2.7772321e-08
2.7772321e-08
2.7772321e-08
2.7772321e-08
2.7772321e-08
2.7772321e-08
2.7772321e-08
2.7772321e-08
2.7772321e-08
2.7772321e-08
2.7772321e-08
2.7772321e-08
2.7772321e-08
2.7772321e-08
2.7772321e-08
2.7772321e-08
2.7772321e-08
2.7772321e-08
2.7772321e-08
2.7772321e-08
2.7772321e-08
2.7772321e-08
2.7772321e-08
2.7772321e-08
2.7772322e-08
2.7772322e-08
2.7772322e-08
2.7772322e-08
2.7772322e-08
2.7772322e-08
2.7772322e-08
2.7772322e-08
2.7772322e-08
2.7772322e-08
2.7772322e-08
2.7772322e-08
2.7772322e-08
2.7772322e-08
2.7772322e-08
2.7772322e-08
2.7772322e-08
2.7772322e-08
2.7772322e-08
2.7772322e-08
2.7772322e-08
2.7772322e-08
2.7772322e-08
2.7772322e-08
2.7772322e-08
2.7772322e-08
2.7772322e-08
2.7772322e-08
2.7772322e-08
2.7772322e-08
2.7772322e-08
2.7772322e-08
2.7772322e-08
2.7772322e-08
2.7772322e-08
2.7772322e-08
2.7772322e-08
2.7772322e-08
2.7772322e-08
2.7772322e-08
2.7772322e-08
2.7772322e-08
2.7772322e-08
2.7772322e-08
2.7772322e-08
2.7772322e-08
2.7772322e-08
2.7772322e-08
2.7772322e-08
2.7772322e-08
2.7772322e-08
2.7772322e-08
2.7772322e-08
2.7772322e-08
2.7772322e-08
2.7772322e-08
2.7772322e-08
2.7772322e-08
2.7772322e-08
2.7772322e-08
2.7772322e-08
2.7772322e-08
2.7772322e-08
2.7772322e-08
2.7772322e-08
2.7772322e-08
2.7772322e-08
2.7772322e-08
2.7772322e-08
2.7772322e-08
2.77723e-08
2.7772315e-08
2.7772318e-08
2.777232e-08
2.7772321e-08
2.7772321e-08
2.7772321e-08
2.7772322e-08
2.7772322e-08
2.7772322e-08
2.7772322e-08
2.7772322e-08
2.7772322e-08
2.7772322e-08
2.77723e-08
2.7772315e-08
2.7772318e-08
2.777232e-08
2.7772321e-08
2.7772321e-08
2.7772321e-08
2.7772322e-08
2.7772322e-08
2.7772322e-08
2.7772322e-08
2.7772322e-08
2.7772322e-08
2.7772322e-08
2.77723e-08
2.7772315e-08
2.7772318e-08
2.777232e-08
2.7772321e-08
2.7772321e-08
2.7772321e-08
2.7772322e-08
2.7772322e-08
2.7772322e-08
2.7772322e-08
2.7772322e-08
2.7772322e-08
2.7772322e-08
2.77723e-08
2.7772315e-08
2.7772318e-08
2.777232e-08
2.7772321e-08
2.7772321e-08
2.7772321e-08
2.7772322e-08
2.7772322e-08
2.7772322e-08
2.7772322e-08
2.7772322e-08
2.7772322e-08
2.7772322e-08
2.77723e-08
2.7772315e-08
2.7772318e-08
2.777232e-08
2.7772321e-08
2.7772321e-08
2.7772321e-08
2.7772322e-08
2.7772322e-08
2.7772322e-08
2.7772322e-08
2.7772322e-08
2.7772322e-08
2.7772322e-08
2.7772299e-08
2.7772315e-08
2.7772318e-08
2.777232e-08
2.7772321e-08
2.7772321e-08
2.7772321e-08
2.7772322e-08
2.7772322e-08
2.7772322e-08
2.7772322e-08
2.7772322e-08
2.7772322e-08
2.7772322e-08
2.7772299e-08
2.7772315e-08
2.7772319e-08
2.777232e-08
2.7772321e-08
2.7772321e-08
2.7772321e-08
2.7772322e-08
2.7772322e-08
2.7772322e-08
2.7772322e-08
2.7772322e-08
2.7772322e-08
2.7772322e-08
2.7772299e-08
2.7772315e-08
2.7772319e-08
2.777232e-08
2.7772321e-08
2.7772321e-08
2.7772321e-08
2.7772322e-08
2.7772322e-08
2.7772322e-08
2.7772322e-08
2.7772322e-08
2.7772322e-08
2.7772322e-08
2.7772299e-08
2.7772315e-08
2.7772319e-08
2.777232e-08
2.7772321e-08
2.7772321e-08
2.7772321e-08
2.7772322e-08
2.7772322e-08
2.7772322e-08
2.7772322e-08
2.7772322e-08
2.7772322e-08
2.7772322e-08
2.77723e-08
2.7772315e-08
2.7772319e-08
2.777232e-08
2.7772321e-08
2.7772321e-08
2.7772321e-08
2.7772322e-08
2.7772322e-08
2.7772322e-08
2.7772322e-08
2.7772322e-08
2.7772322e-08
2.7772322e-08
2.77723e-08
2.7772315e-08
2.7772319e-08
2.777232e-08
2.7772321e-08
2.7772321e-08
2.7772321e-08
2.7772322e-08
2.7772322e-08
2.7772322e-08
2.7772322e-08
2.7772322e-08
2.7772322e-08
2.7772322e-08
2.77723e-08
2.7772315e-08
2.7772319e-08
2.777232e-08
2.7772321e-08
2.7772321e-08
2.7772321e-08
2.7772322e-08
2.7772322e-08
2.7772322e-08
2.7772322e-08
2.7772322e-08
2.7772322e-08
2.7772322e-08
2.77723e-08
2.7772315e-08
2.7772319e-08
2.777232e-08
2.7772321e-08
2.7772321e-08
2.7772321e-08
2.7772322e-08
2.7772322e-08
2.7772322e-08
2.7772322e-08
2.7772322e-08
2.7772322e-08
2.7772322e-08
2.77723e-08
2.7772315e-08
2.7772319e-08
2.777232e-08
2.7772321e-08
2.7772321e-08
2.7772321e-08
2.7772322e-08
2.7772322e-08
2.7772322e-08
2.7772322e-08
2.7772322e-08
2.7772322e-08
2.7772322e-08
2.7772322e-08
2.7772322e-08
2.7772322e-08
2.7772322e-08
2.7772322e-08
2.7772321e-08
2.7772321e-08
2.7772321e-08
2.777232e-08
2.7772319e-08
2.7772315e-08
2.77723e-08
2.7772322e-08
2.7772322e-08
2.7772322e-08
2.7772321e-08
2.7772321e-08
2.7772321e-08
2.777232e-08
2.7772319e-08
2.7772315e-08
2.77723e-08
2.7772322e-08
2.7772322e-08
2.7772321e-08
2.7772321e-08
2.7772321e-08
2.777232e-08
2.7772319e-08
2.7772315e-08
2.77723e-08
2.7772321e-08
2.7772321e-08
2.7772321e-08
2.777232e-08
2.7772319e-08
2.7772315e-08
2.77723e-08
2.7772321e-08
2.7772321e-08
2.777232e-08
2.7772319e-08
2.7772315e-08
2.77723e-08
2.777232e-08
2.7772319e-08
2.7772315e-08
2.77723e-08
2.7772319e-08
2.7772315e-08
2.77723e-08
2.7772315e-08
2.7772301e-08
2.77723e-08
2.383876e-08
2.360531e-08
2.3501419e-08
2.3430762e-08
2.3445739e-08
2.3514002e-08
2.361092e-08
2.3730869e-08
2.3867803e-08
2.4018397e-08
2.6987849e-08
2.6986838e-08
2.6980063e-08
2.6968895e-08
2.6964206e-08
2.6966322e-08
2.6971523e-08
2.6979556e-08
2.6993445e-08
2.7014814e-08
2.7320951e-08
2.731245e-08
2.7304233e-08
2.7300867e-08
2.7301334e-08
2.7300774e-08
2.7299531e-08
2.7298588e-08
2.7299773e-08
2.7306349e-08
2.7721154e-08
2.7719413e-08
2.7717924e-08
2.7717087e-08
2.7716722e-08
2.7716551e-08
2.7716367e-08
2.7716075e-08
2.7715486e-08
2.7714765e-08
2.7769372e-08
2.776928e-08
2.7769195e-08
2.7769147e-08
2.7769117e-08
2.7769086e-08
2.7769057e-08
2.7769027e-08
2.7769007e-08
2.7769007e-08
2.7771844e-08
2.7771839e-08
2.7771828e-08
2.7771822e-08
2.7771816e-08
2.777181e-08
2.7771805e-08
2.7771799e-08
2.7771791e-08
2.7771789e-08
2.7772061e-08
2.777206e-08
2.7772056e-08
2.7772051e-08
2.7772051e-08
2.7772048e-08
2.7772044e-08
2.7772042e-08
2.777204e-08
2.7772036e-08
2.7772129e-08
2.7772128e-08
2.7772124e-08
2.7772123e-08
2.7772121e-08
2.777212e-08
2.7772118e-08
2.7772116e-08
2.7772115e-08
2.7772112e-08
2.7772171e-08
2.7772171e-08
2.7772169e-08
2.7772169e-08
2.7772168e-08
2.7772165e-08
2.7772164e-08
2.7772163e-08
2.7772161e-08
2.777216e-08
2.7772201e-08
2.7772202e-08
2.77722e-08
2.77722e-08
2.7772199e-08
2.7772198e-08
2.7772196e-08
2.7772195e-08
2.7772193e-08
2.7772193e-08
2.7772224e-08
2.7772224e-08
2.7772223e-08
2.7772222e-08
2.7772221e-08
2.777222e-08
2.777222e-08
2.7772219e-08
2.7772217e-08
2.7772217e-08
2.7772241e-08
2.7772241e-08
2.777224e-08
2.7772239e-08
2.7772238e-08
2.7772237e-08
2.7772237e-08
2.7772236e-08
2.7772236e-08
2.7772235e-08
2.7772254e-08
2.7772254e-08
2.7772253e-08
2.7772252e-08
2.7772252e-08
2.7772251e-08
2.777225e-08
2.7772249e-08
2.7772249e-08
2.7772248e-08
2.7772264e-08
2.7772264e-08
2.7772263e-08
2.7772263e-08
2.7772262e-08
2.7772261e-08
2.7772261e-08
2.777226e-08
2.777226e-08
2.7772259e-08
2.4369809e-08
2.4819187e-08
2.5336077e-08
2.5813952e-08
2.6272966e-08
2.6754468e-08
2.7271321e-08
2.7778287e-08
2.8189444e-08
2.8495103e-08
2.8761489e-08
2.9014048e-08
2.9236334e-08
2.9421325e-08
2.7070671e-08
2.7126549e-08
2.7152917e-08
2.71851e-08
2.7217205e-08
2.7249009e-08
2.7278019e-08
2.7303115e-08
2.7323321e-08
2.733949e-08
2.7357078e-08
2.7372745e-08
2.7387213e-08
2.7398416e-08
2.7322891e-08
2.7355375e-08
2.7376483e-08
2.7398307e-08
2.7420157e-08
2.7443241e-08
2.7465517e-08
2.7484236e-08
2.7498741e-08
2.7510679e-08
2.7521696e-08
2.7532347e-08
2.7543997e-08
2.7557966e-08
2.7715097e-08
2.7722191e-08
2.7726334e-08
2.7730269e-08
2.7734057e-08
2.7737933e-08
2.7741554e-08
2.7744467e-08
2.7746568e-08
2.7748207e-08
2.7749674e-08
2.7751113e-08
2.7752709e-08
2.7754723e-08
2.7769017e-08
2.7769446e-08
2.7769654e-08
2.7769868e-08
2.7770071e-08
2.7770272e-08
2.7770444e-08
2.7770583e-08
2.7770683e-08
2.7770764e-08
2.7770838e-08
2.7770913e-08
2.7771e-08
2.7771122e-08
2.7771788e-08
2.7771818e-08
2.7771832e-08
2.7771843e-08
2.7771857e-08
2.7771872e-08
2.7771879e-08
2.7771888e-08
2.7771894e-08
2.77719e-08
2.7771906e-08
2.7771912e-08
2.7771916e-08
2.7771926e-08
2.7772035e-08
2.7772039e-08
2.7772042e-08
2.7772041e-08
2.7772044e-08
2.7772046e-08
2.7772046e-08
2.7772047e-08
2.7772049e-08
2.777205e-08
2.7772052e-08
2.7772053e-08
2.7772053e-08
2.7772055e-08
2.7772111e-08
2.7772112e-08
2.7772113e-08
2.7772115e-08
2.7772115e-08
2.7772117e-08
2.7772116e-08
2.7772117e-08
2.7772118e-08
2.777212e-08
2.7772121e-08
2.7772122e-08
2.7772123e-08
2.7772122e-08
2.7772158e-08
2.777216e-08
2.777216e-08
2.7772162e-08
2.7772162e-08
2.7772163e-08
2.7772162e-08
2.7772163e-08
2.7772164e-08
2.7772165e-08
2.7772166e-08
2.7772167e-08
2.7772167e-08
2.7772167e-08
2.7772191e-08
2.7772193e-08
2.7772193e-08
2.7772194e-08
2.7772194e-08
2.7772195e-08
2.7772194e-08
2.7772195e-08
2.7772196e-08
2.7772196e-08
2.7772197e-08
2.7772198e-08
2.7772198e-08
2.7772198e-08
2.7772215e-08
2.7772217e-08
2.7772217e-08
2.7772218e-08
2.7772217e-08
2.7772218e-08
2.7772218e-08
2.7772218e-08
2.7772219e-08
2.7772219e-08
2.777222e-08
2.7772221e-08
2.7772221e-08
2.7772221e-08
2.7772234e-08
2.7772235e-08
2.7772235e-08
2.7772235e-08
2.7772235e-08
2.7772235e-08
2.7772235e-08
2.7772236e-08
2.7772236e-08
2.7772237e-08
2.7772237e-08
2.7772238e-08
2.7772238e-08
2.7772239e-08
2.7772247e-08
2.7772248e-08
2.7772248e-08
2.7772249e-08
2.7772249e-08
2.7772249e-08
2.7772249e-08
2.7772249e-08
2.7772249e-08
2.777225e-08
2.777225e-08
2.7772251e-08
2.7772251e-08
2.7772251e-08
2.7772259e-08
2.7772259e-08
2.7772259e-08
2.7772259e-08
2.777226e-08
2.7772259e-08
2.7772259e-08
2.777226e-08
2.777226e-08
2.777226e-08
2.7772261e-08
2.7772261e-08
2.7772262e-08
2.7772262e-08
2.7772269e-08
2.7772261e-08
2.7772249e-08
2.7772235e-08
2.7772216e-08
2.7772189e-08
2.7772151e-08
2.7772095e-08
2.7772006e-08
2.7771898e-08
2.7773052e-08
2.7772267e-08
2.7772258e-08
2.7772246e-08
2.7772231e-08
2.7772211e-08
2.7772185e-08
2.7772146e-08
2.7772087e-08
2.7771995e-08
2.7771892e-08
2.7773052e-08
2.7824555e-08
2.7834045e-08
3.757425e-08
2.7772265e-08
2.7772256e-08
2.7772244e-08
2.7772228e-08
2.7772208e-08
2.7772179e-08
2.7772141e-08
2.7772081e-08
2.7771985e-08
2.7771861e-08
2.7772086e-08
2.7793991e-08
2.7819719e-08
3.6770629e-08
2.7772264e-08
2.7772254e-08
2.7772242e-08
2.7772226e-08
2.7772205e-08
2.7772176e-08
2.7772136e-08
2.7772074e-08
2.7771977e-08
2.7771819e-08
2.7771563e-08
2.7772013e-08
2.77721e-08
3.5831949e-08
2.7772263e-08
2.7772253e-08
2.777224e-08
2.7772224e-08
2.7772202e-08
2.7772173e-08
2.7772132e-08
2.7772069e-08
2.7771968e-08
2.7771775e-08
2.7770512e-08
2.7743012e-08
2.7711031e-08
3.4724885e-08
2.7772262e-08
2.7772252e-08
2.7772239e-08
2.7772223e-08
2.7772201e-08
2.777217e-08
2.7772129e-08
2.7772065e-08
2.7771961e-08
2.7771723e-08
2.7768804e-08
2.7706429e-08
2.7640971e-08
3.3522872e-08
2.7772261e-08
2.7772251e-08
2.7772238e-08
2.7772222e-08
2.7772199e-08
2.7772169e-08
2.7772127e-08
2.7772062e-08
2.7771955e-08
2.7771646e-08
2.7766464e-08
2.7667181e-08
2.7570152e-08
3.2347613e-08
2.7772261e-08
2.7772251e-08
2.7772238e-08
2.7772221e-08
2.7772198e-08
2.7772168e-08
2.7772124e-08
2.7772061e-08
2.7771951e-08
2.7771554e-08
2.7763679e-08
2.7631439e-08
2.7505124e-08
3.1382488e-08
2.7772261e-08
2.7772251e-08
2.7772238e-08
2.7772221e-08
2.7772198e-08
2.7772167e-08
2.7772123e-08
2.7772058e-08
2.7771948e-08
2.7771471e-08
2.7761225e-08
2.7604673e-08
2.7459821e-08
3.0623089e-08
2.7772261e-08
2.7772251e-08
2.7772238e-08
2.7772221e-08
2.7772198e-08
2.7772167e-08
2.7772123e-08
2.7772056e-08
2.7771941e-08
2.7771401e-08
2.7759161e-08
2.7582744e-08
2.74124e-08
2.9933099e-08
2.7772269e-08
2.7772261e-08
2.7772249e-08
2.7772235e-08
2.7772215e-08
2.7772189e-08
2.7772151e-08
2.7772094e-08
2.7772002e-08
2.7771812e-08
2.7770037e-08
2.7728304e-08
2.7686532e-08
3.3924452e-08
2.7772268e-08
2.7772259e-08
2.7772248e-08
2.7772233e-08
2.7772214e-08
2.7772186e-08
2.7772148e-08
2.777209e-08
2.7771996e-08
2.7771783e-08
2.7769306e-08
2.7713947e-08
2.7658103e-08
3.3459868e-08
2.7772267e-08
2.7772258e-08
2.7772246e-08
2.7772231e-08
2.7772211e-08
2.7772184e-08
2.7772145e-08
2.7772086e-08
2.777199e-08
2.7771752e-08
2.7768449e-08
2.7699146e-08
2.7628119e-08
3.2983326e-08
2.7772266e-08
2.7772257e-08
2.7772245e-08
2.777223e-08
2.7772209e-08
2.7772181e-08
2.7772143e-08
2.7772083e-08
2.7771985e-08
2.7771718e-08
2.7767459e-08
2.7683647e-08
2.7596856e-08
3.249739e-08
2.7772266e-08
2.7772256e-08
2.7772244e-08
2.7772228e-08
2.7772208e-08
2.7772179e-08
2.7772139e-08
2.7772081e-08
2.7771981e-08
2.7771679e-08
2.7766315e-08
2.7667233e-08
2.7563736e-08
3.1994691e-08
2.7772265e-08
2.7772256e-08
2.7772243e-08
2.7772228e-08
2.7772207e-08
2.7772178e-08
2.7772137e-08
2.7772076e-08
2.7771977e-08
2.7771634e-08
2.7764988e-08
2.7649752e-08
2.7527846e-08
3.1466444e-08
2.7772265e-08
2.7772255e-08
2.7772243e-08
2.7772227e-08
2.7772206e-08
2.7772177e-08
2.7772135e-08
2.7772074e-08
2.7771974e-08
2.7771584e-08
2.7763461e-08
2.7631299e-08
2.7491551e-08
3.0912496e-08
2.7772265e-08
2.7772255e-08
2.7772243e-08
2.7772227e-08
2.7772205e-08
2.7772176e-08
2.7772135e-08
2.7772072e-08
2.7771968e-08
2.7771528e-08
2.7761778e-08
2.7612277e-08
2.7454071e-08
3.0341643e-08
2.7772265e-08
2.7772255e-08
2.7772243e-08
2.7772227e-08
2.7772205e-08
2.7772176e-08
2.7772134e-08
2.7772072e-08
2.7771965e-08
2.7771464e-08
2.775982e-08
2.7591706e-08
2.7413039e-08
2.9709464e-08
2.7772265e-08
2.7772255e-08
2.7772243e-08
2.7772227e-08
2.7772206e-08
2.7772177e-08
2.7772135e-08
2.7772072e-08
2.7771961e-08
2.7771382e-08
2.7757408e-08
2.7569371e-08
2.7365e-08
2.9026404e-08
2.7772265e-08
2.7772265e-08
2.7772265e-08
2.7772265e-08
2.7772265e-08
2.7772265e-08
2.7772265e-08
2.7772255e-08
2.7772255e-08
2.7772255e-08
2.7772255e-08
2.7772255e-08
2.7772255e-08
2.7772255e-08
2.7772256e-08
2.7772242e-08
2.7772243e-08
2.7772242e-08
2.7772243e-08
2.7772243e-08
2.7772243e-08
2.7772243e-08
2.7772243e-08
2.7772227e-08
2.7772227e-08
2.7772226e-08
2.7772226e-08
2.7772226e-08
2.7772227e-08
2.7772227e-08
2.7772227e-08
2.7772227e-08
2.7772205e-08
2.7772205e-08
2.7772205e-08
2.7772205e-08
2.7772205e-08
2.7772205e-08
2.7772205e-08
2.7772206e-08
2.7772206e-08
2.7772176e-08
2.7772176e-08
2.7772175e-08
2.7772175e-08
2.7772175e-08
2.7772175e-08
2.7772176e-08
2.7772176e-08
2.7772176e-08
2.7772177e-08
2.7772133e-08
2.7772133e-08
2.7772133e-08
2.7772133e-08
2.7772133e-08
2.7772133e-08
2.7772133e-08
2.7772134e-08
2.7772134e-08
2.7772135e-08
2.7772068e-08
2.7772068e-08
2.7772068e-08
2.7772067e-08
2.7772067e-08
2.7772067e-08
2.7772068e-08
2.7772068e-08
2.7772069e-08
2.777207e-08
2.7772072e-08
2.7771907e-08
2.7771911e-08
2.7771913e-08
2.7771916e-08
2.777192e-08
2.7771924e-08
2.7771929e-08
2.7771933e-08
2.7771938e-08
2.7771944e-08
2.777195e-08
2.7770236e-08
2.7770304e-08
2.7770372e-08
2.7770448e-08
2.7770532e-08
2.7770615e-08
2.7770705e-08
2.7770796e-08
2.7770888e-08
2.7770979e-08
2.7771072e-08
2.7771176e-08
2.7732821e-08
2.7734309e-08
2.7735859e-08
2.7737577e-08
2.7739442e-08
2.7741324e-08
2.7743348e-08
2.774539e-08
2.7747479e-08
2.7749565e-08
2.7751618e-08
2.7753787e-08
2.740447e-08
2.7412038e-08
2.7420015e-08
2.7429221e-08
2.74397e-08
2.7451408e-08
2.7463755e-08
2.7477294e-08
2.7491562e-08
2.7506723e-08
2.7522408e-08
2.753812e-08
2.7553557e-08
2.7021032e-08
2.7034143e-08
2.7050792e-08
2.7069278e-08
2.7089649e-08
2.7112548e-08
2.7137851e-08
2.7163833e-08
2.7191693e-08
2.7219442e-08
2.7248258e-08
2.7276942e-08
2.7308077e-08
2.7340442e-08
2.4468309e-08
2.4627521e-08
2.4834625e-08
2.5062838e-08
2.5313812e-08
2.5588841e-08
2.5897146e-08
2.6209962e-08
2.6553416e-08
2.6910944e-08
2.7288413e-08
2.7680205e-08
2.8060798e-08
2.8393197e-08
)
;

boundaryField
{
    Side
    {
        type            empty;
    }
    Inlet
    {
        type            inletOutlet;
        inletValue      uniform 3.9592226e-07;
        value           nonuniform List<scalar> 
42
(
2.7772322e-08
2.7772322e-08
2.7772322e-08
2.7772322e-08
2.7772322e-08
2.7772322e-08
2.7772322e-08
2.7772322e-08
2.7772322e-08
2.7772322e-08
2.7772322e-08
2.7772322e-08
2.7772322e-08
2.7772322e-08
2.7772322e-08
2.7772322e-08
2.7772322e-08
2.7772322e-08
3.9592226e-07
3.9592226e-07
3.9592226e-07
3.9592226e-07
3.9592226e-07
3.9592226e-07
3.9592226e-07
3.9592226e-07
3.9592226e-07
3.9592226e-07
3.9592226e-07
3.9592226e-07
3.9592226e-07
3.9592226e-07
3.9592226e-07
3.9592226e-07
3.9592226e-07
3.9592226e-07
3.9592226e-07
3.9592226e-07
3.9592226e-07
3.9592226e-07
3.9592226e-07
3.9592226e-07
)
;
    }
    Airfoil
    {
        type            nutUSpaldingWallFunction;
        value           nonuniform List<scalar> 
57
(
1.4188516e-05
1.4135084e-05
1.4089274e-05
1.4044797e-05
1.39994e-05
1.3953443e-05
1.3906278e-05
1.3861895e-05
1.3821132e-05
1.3783984e-05
1.3727114e-05
1.3776244e-05
1.3802339e-05
1.3823728e-05
1.3848376e-05
1.3872112e-05
1.3884414e-05
1.3882532e-05
1.3876981e-05
1.3878468e-05
1.3888164e-05
1.3903299e-05
1.3923448e-05
1.3940981e-05
1.4426225e-05
1.4292063e-05
1.4189037e-05
1.4119367e-05
1.4076325e-05
1.4048045e-05
1.4025e-05
1.4014914e-05
1.4037249e-05
1.4722847e-05
1.4625138e-05
1.4541126e-05
1.4471347e-05
1.4416838e-05
1.4378504e-05
1.4356601e-05
1.4353195e-05
1.4373396e-05
1.4416911e-05
1.4490934e-05
1.4470915e-05
1.4452393e-05
1.4435012e-05
1.442053e-05
1.4410036e-05
1.4399735e-05
1.4395454e-05
1.4394628e-05
1.4397822e-05
1.4405005e-05
1.441441e-05
1.442667e-05
1.44452e-05
)
;
    }
    Outlet
    {
        type            zeroGradient;
    }
    Flap
    {
        type            nutUSpaldingWallFunction;
        value           nonuniform List<scalar> 0();
    }
    procBoundary1to0
    {
        type            processor;
        value           nonuniform List<scalar> 
58
(
2.7772322e-08
2.7772322e-08
2.7772322e-08
2.7772322e-08
2.7772322e-08
2.7772322e-08
2.7772322e-08
2.7772321e-08
2.7772321e-08
2.7772321e-08
2.7772321e-08
2.777232e-08
2.7772319e-08
2.7772315e-08
2.7772302e-08
2.7772302e-08
2.7772315e-08
2.7772319e-08
2.777232e-08
2.7772321e-08
2.7772321e-08
2.7772321e-08
2.7772322e-08
2.7772322e-08
2.7772322e-08
2.7772322e-08
2.7772322e-08
2.7772322e-08
2.7772322e-08
2.7772271e-08
2.7772262e-08
2.7772252e-08
2.7772238e-08
2.7772219e-08
2.7772193e-08
2.7772157e-08
2.7772102e-08
2.7772016e-08
2.7771925e-08
2.7773026e-08
2.7837258e-08
2.7837258e-08
2.7858822e-08
3.8292808e-08
2.777227e-08
2.7772262e-08
2.7772251e-08
2.7772236e-08
2.7772217e-08
2.7772191e-08
2.7772154e-08
2.7772098e-08
2.7772008e-08
2.7771835e-08
2.7770625e-08
2.7741896e-08
2.7713172e-08
3.4427641e-08
)
;
    }
    procBoundary1to2
    {
        type            processor;
        value           nonuniform List<scalar> 
73
(
2.7772322e-08
2.7772322e-08
2.7772322e-08
2.7772322e-08
2.7772322e-08
2.7772322e-08
2.7772322e-08
2.7772321e-08
2.7772321e-08
2.7772321e-08
2.777232e-08
2.7772319e-08
2.7772315e-08
2.77723e-08
2.7017144e-08
2.4315249e-08
2.7772322e-08
2.7772322e-08
2.7772322e-08
2.7772322e-08
2.7772322e-08
2.7772322e-08
2.7772322e-08
2.7772322e-08
2.7772322e-08
2.7772322e-08
2.7772322e-08
2.7772321e-08
2.7772321e-08
2.7772321e-08
2.7772321e-08
2.7772321e-08
2.777232e-08
2.777232e-08
2.7772319e-08
2.7772319e-08
2.7772315e-08
2.7772315e-08
2.77723e-08
2.77723e-08
2.3939555e-08
2.7002421e-08
2.7338668e-08
2.7724184e-08
2.7769542e-08
2.7771861e-08
2.7772064e-08
2.7772133e-08
2.7772175e-08
2.7772205e-08
2.7772226e-08
2.7772242e-08
2.7772255e-08
2.7772264e-08
2.7772265e-08
2.7772265e-08
2.7772255e-08
2.7772243e-08
2.7772243e-08
2.7772226e-08
2.7772205e-08
2.7772205e-08
2.7772176e-08
2.7772135e-08
2.7772135e-08
2.7772071e-08
2.7771908e-08
2.7771908e-08
2.7770192e-08
2.7731782e-08
2.7731782e-08
2.7400601e-08
2.7400601e-08
)
;
    }
}


// ************************************************************************* //
