/*--------------------------------*- C++ -*----------------------------------*\
| =========                 |                                                 |
| \\      /  F ield         | OpenFOAM: The Open Source CFD Toolbox           |
|  \\    /   O peration     | Version:  2206                                  |
|   \\  /    A nd           | Website:  www.openfoam.com                      |
|    \\/     M anipulation  |                                                 |
\*---------------------------------------------------------------------------*/
FoamFile
{
    version     2.0;
    format      ascii;
    arch        "LSB;label=32;scalar=64";
    class       volScalarField;
    location    "0.02";
    object      nuTilda;
}
// * * * * * * * * * * * * * * * * * * * * * * * * * * * * * * * * * * * * * //

dimensions      [0 2 -1 0 0 0 0];

internalField   nonuniform List<scalar> 
1396
(
3.9592226e-07
3.9592226e-07
3.9592226e-07
3.9592226e-07
3.9592226e-07
3.9592226e-07
3.9592226e-07
3.9592226e-07
3.9592226e-07
3.9592226e-07
3.9592226e-07
3.9592226e-07
3.9592226e-07
3.9592226e-07
3.9592226e-07
3.9592226e-07
3.9592225e-07
3.9592225e-07
3.9592225e-07
3.9592223e-07
3.9592218e-07
3.9592226e-07
3.9592226e-07
3.9592226e-07
3.9592226e-07
3.9592226e-07
3.9592226e-07
3.9592226e-07
3.9592226e-07
3.9592226e-07
3.9592225e-07
3.9592225e-07
3.9592225e-07
3.9592223e-07
3.9592218e-07
3.9592226e-07
3.9592226e-07
3.9592226e-07
3.9592226e-07
3.9592226e-07
3.9592226e-07
3.9592226e-07
3.9592226e-07
3.9592226e-07
3.9592225e-07
3.9592225e-07
3.9592225e-07
3.9592223e-07
3.9592218e-07
3.9592226e-07
3.9592226e-07
3.9592226e-07
3.9592226e-07
3.9592226e-07
3.9592226e-07
3.9592226e-07
3.9592226e-07
3.9592226e-07
3.9592225e-07
3.9592225e-07
3.9592225e-07
3.9592223e-07
3.9592218e-07
3.9592226e-07
3.9592226e-07
3.9592226e-07
3.9592226e-07
3.9592226e-07
3.9592226e-07
3.9592226e-07
3.9592226e-07
3.9592226e-07
3.9592225e-07
3.9592225e-07
3.9592225e-07
3.9592223e-07
3.9592218e-07
3.9592226e-07
3.9592226e-07
3.9592226e-07
3.9592226e-07
3.9592226e-07
3.9592226e-07
3.9592226e-07
3.9592226e-07
3.9592226e-07
3.9592225e-07
3.9592225e-07
3.9592225e-07
3.9592223e-07
3.9592218e-07
3.9592226e-07
3.9592226e-07
3.9592226e-07
3.9592226e-07
3.9592226e-07
3.9592226e-07
3.9592226e-07
3.9592226e-07
3.9592226e-07
3.9592225e-07
3.9592225e-07
3.9592225e-07
3.9592223e-07
3.9592218e-07
3.9592226e-07
3.9592226e-07
3.9592226e-07
3.9592226e-07
3.9592226e-07
3.9592226e-07
3.9592226e-07
3.9592226e-07
3.9592226e-07
3.9592225e-07
3.9592225e-07
3.9592225e-07
3.9592223e-07
3.9592218e-07
3.9592226e-07
3.9592226e-07
3.9592226e-07
3.9592226e-07
3.9592226e-07
3.9592226e-07
3.9592226e-07
3.9592226e-07
3.9592226e-07
3.9592225e-07
3.9592225e-07
3.9592225e-07
3.9592223e-07
3.9592218e-07
3.9592226e-07
3.9592226e-07
3.9592226e-07
3.9592226e-07
3.9592226e-07
3.9592226e-07
3.9592226e-07
3.9592226e-07
3.9592226e-07
3.9592225e-07
3.9592225e-07
3.9592225e-07
3.9592223e-07
3.9592218e-07
3.9592226e-07
3.9592226e-07
3.9592226e-07
3.9592226e-07
3.9592226e-07
3.9592226e-07
3.9592226e-07
3.9592226e-07
3.9592226e-07
3.9592225e-07
3.9592225e-07
3.9592225e-07
3.9592223e-07
3.9592218e-07
3.9592226e-07
3.9592226e-07
3.9592226e-07
3.9592226e-07
3.9592226e-07
3.9592226e-07
3.9592226e-07
3.9592226e-07
3.9592226e-07
3.9592225e-07
3.9592225e-07
3.9592225e-07
3.9592223e-07
3.9592218e-07
3.9592226e-07
3.9592226e-07
3.9592226e-07
3.9592226e-07
3.9592226e-07
3.9592226e-07
3.9592226e-07
3.9592226e-07
3.9592226e-07
3.9592225e-07
3.9592225e-07
3.9592225e-07
3.9592223e-07
3.9592218e-07
3.9592226e-07
3.9592226e-07
3.9592226e-07
3.9592226e-07
3.9592226e-07
3.9592226e-07
3.9592226e-07
3.9592226e-07
3.9592226e-07
3.9592225e-07
3.9592225e-07
3.9592225e-07
3.9592223e-07
3.9592218e-07
3.9592226e-07
3.9592226e-07
3.9592226e-07
3.9592226e-07
3.9592226e-07
3.9592226e-07
3.9592226e-07
3.9592226e-07
3.9592226e-07
3.9592225e-07
3.9592225e-07
3.9592225e-07
3.9592223e-07
3.9592218e-07
3.9592226e-07
3.9592226e-07
3.9592226e-07
3.9592226e-07
3.9592226e-07
3.9592226e-07
3.9592226e-07
3.9592226e-07
3.9592226e-07
3.9592225e-07
3.9592225e-07
3.9592225e-07
3.9592223e-07
3.9592218e-07
3.9592226e-07
3.9592226e-07
3.9592226e-07
3.9592226e-07
3.9592226e-07
3.9592226e-07
3.9592226e-07
3.9592226e-07
3.9592226e-07
3.9592225e-07
3.9592225e-07
3.9592225e-07
3.9592223e-07
3.9592218e-07
3.9592218e-07
3.9592218e-07
3.9592218e-07
3.9592218e-07
3.9592218e-07
3.9592218e-07
3.9592218e-07
3.9592218e-07
3.9592218e-07
3.9592218e-07
3.9592223e-07
3.9592223e-07
3.9592223e-07
3.9592223e-07
3.9592223e-07
3.9592223e-07
3.9592223e-07
3.9592223e-07
3.9592223e-07
3.9592223e-07
3.9592225e-07
3.9592225e-07
3.9592225e-07
3.9592225e-07
3.9592225e-07
3.9592225e-07
3.9592225e-07
3.9592225e-07
3.9592225e-07
3.9592225e-07
3.9592225e-07
3.9592225e-07
3.9592225e-07
3.9592225e-07
3.9592225e-07
3.9592225e-07
3.9592225e-07
3.9592225e-07
3.9592225e-07
3.9592225e-07
3.9592225e-07
3.9592225e-07
3.9592225e-07
3.9592225e-07
3.9592225e-07
3.9592225e-07
3.9592225e-07
3.9592225e-07
3.9592225e-07
3.9592225e-07
3.9592226e-07
3.9592226e-07
3.9592226e-07
3.9592226e-07
3.9592226e-07
3.9592226e-07
3.9592226e-07
3.9592226e-07
3.9592226e-07
3.9592226e-07
3.9592226e-07
3.9592226e-07
3.9592226e-07
3.9592226e-07
3.9592226e-07
3.9592226e-07
3.9592226e-07
3.9592226e-07
3.9592226e-07
3.9592226e-07
3.9592226e-07
3.9592226e-07
3.9592226e-07
3.9592226e-07
3.9592226e-07
3.9592226e-07
3.9592226e-07
3.9592226e-07
3.9592226e-07
3.9592226e-07
3.9592226e-07
3.9592226e-07
3.9592226e-07
3.9592226e-07
3.9592226e-07
3.9592226e-07
3.9592226e-07
3.9592226e-07
3.9592226e-07
3.9592226e-07
3.9592226e-07
3.9592226e-07
3.9592226e-07
3.9592226e-07
3.9592226e-07
3.9592226e-07
3.9592226e-07
3.9592226e-07
3.9592226e-07
3.9592226e-07
3.9592226e-07
3.9592226e-07
3.9592226e-07
3.9592226e-07
3.9592226e-07
3.9592226e-07
3.9592226e-07
3.9592226e-07
3.9592226e-07
3.9592226e-07
3.9592226e-07
3.9592226e-07
3.9592226e-07
3.9592226e-07
3.9592226e-07
3.9592226e-07
3.9592226e-07
3.9592226e-07
3.9592226e-07
3.9592226e-07
3.9592226e-07
3.9592226e-07
3.9592226e-07
3.9592226e-07
3.9592226e-07
3.9592226e-07
3.9592226e-07
3.9592226e-07
3.9592226e-07
3.9592226e-07
3.9592226e-07
3.9592226e-07
3.9592226e-07
3.9592226e-07
3.9592226e-07
3.9592226e-07
3.9592226e-07
3.9592226e-07
3.9592226e-07
3.9592226e-07
3.9592218e-07
3.9592223e-07
3.9592225e-07
3.9592225e-07
3.9592225e-07
3.9592226e-07
3.9592226e-07
3.9592226e-07
3.9592226e-07
3.9592226e-07
3.9592226e-07
3.9592226e-07
3.9592226e-07
3.9592226e-07
3.9592218e-07
3.9592223e-07
3.9592225e-07
3.9592225e-07
3.9592225e-07
3.9592226e-07
3.9592226e-07
3.9592226e-07
3.9592226e-07
3.9592226e-07
3.9592226e-07
3.9592226e-07
3.9592226e-07
3.9592226e-07
3.9592218e-07
3.9592223e-07
3.9592225e-07
3.9592225e-07
3.9592225e-07
3.9592226e-07
3.9592226e-07
3.9592226e-07
3.9592226e-07
3.9592226e-07
3.9592226e-07
3.9592226e-07
3.9592226e-07
3.9592226e-07
3.9592218e-07
3.9592223e-07
3.9592225e-07
3.9592225e-07
3.9592225e-07
3.9592226e-07
3.9592226e-07
3.9592226e-07
3.9592226e-07
3.9592226e-07
3.9592226e-07
3.9592226e-07
3.9592226e-07
3.9592226e-07
3.9592218e-07
3.9592223e-07
3.9592225e-07
3.9592225e-07
3.9592225e-07
3.9592226e-07
3.9592226e-07
3.9592226e-07
3.9592226e-07
3.9592226e-07
3.9592226e-07
3.9592226e-07
3.9592226e-07
3.9592226e-07
3.9592217e-07
3.9592223e-07
3.9592225e-07
3.9592225e-07
3.9592225e-07
3.9592226e-07
3.9592226e-07
3.9592226e-07
3.9592226e-07
3.9592226e-07
3.9592226e-07
3.9592226e-07
3.9592226e-07
3.9592226e-07
3.9592217e-07
3.9592223e-07
3.9592225e-07
3.9592225e-07
3.9592225e-07
3.9592226e-07
3.9592226e-07
3.9592226e-07
3.9592226e-07
3.9592226e-07
3.9592226e-07
3.9592226e-07
3.9592226e-07
3.9592226e-07
3.9592217e-07
3.9592223e-07
3.9592225e-07
3.9592225e-07
3.9592225e-07
3.9592226e-07
3.9592226e-07
3.9592226e-07
3.9592226e-07
3.9592226e-07
3.9592226e-07
3.9592226e-07
3.9592226e-07
3.9592226e-07
3.9592218e-07
3.9592223e-07
3.9592225e-07
3.9592225e-07
3.9592225e-07
3.9592226e-07
3.9592226e-07
3.9592226e-07
3.9592226e-07
3.9592226e-07
3.9592226e-07
3.9592226e-07
3.9592226e-07
3.9592226e-07
3.9592218e-07
3.9592223e-07
3.9592225e-07
3.9592225e-07
3.9592225e-07
3.9592226e-07
3.9592226e-07
3.9592226e-07
3.9592226e-07
3.9592226e-07
3.9592226e-07
3.9592226e-07
3.9592226e-07
3.9592226e-07
3.9592218e-07
3.9592223e-07
3.9592225e-07
3.9592225e-07
3.9592225e-07
3.9592226e-07
3.9592226e-07
3.9592226e-07
3.9592226e-07
3.9592226e-07
3.9592226e-07
3.9592226e-07
3.9592226e-07
3.9592226e-07
3.9592218e-07
3.9592223e-07
3.9592225e-07
3.9592225e-07
3.9592225e-07
3.9592226e-07
3.9592226e-07
3.9592226e-07
3.9592226e-07
3.9592226e-07
3.9592226e-07
3.9592226e-07
3.9592226e-07
3.9592226e-07
3.9592218e-07
3.9592223e-07
3.9592225e-07
3.9592225e-07
3.9592225e-07
3.9592226e-07
3.9592226e-07
3.9592226e-07
3.9592226e-07
3.9592226e-07
3.9592226e-07
3.9592226e-07
3.9592226e-07
3.9592226e-07
3.9592218e-07
3.9592223e-07
3.9592225e-07
3.9592225e-07
3.9592225e-07
3.9592226e-07
3.9592226e-07
3.9592226e-07
3.9592226e-07
3.9592226e-07
3.9592226e-07
3.9592226e-07
3.9592226e-07
3.9592226e-07
3.9592226e-07
3.9592226e-07
3.9592226e-07
3.9592226e-07
3.9592226e-07
3.9592226e-07
3.9592226e-07
3.9592225e-07
3.9592225e-07
3.9592225e-07
3.9592223e-07
3.9592218e-07
3.9592226e-07
3.9592226e-07
3.9592226e-07
3.9592226e-07
3.9592226e-07
3.9592225e-07
3.9592225e-07
3.9592225e-07
3.9592223e-07
3.9592218e-07
3.9592226e-07
3.9592226e-07
3.9592226e-07
3.9592226e-07
3.9592225e-07
3.9592225e-07
3.9592225e-07
3.9592223e-07
3.9592218e-07
3.9592226e-07
3.9592226e-07
3.9592225e-07
3.9592225e-07
3.9592225e-07
3.9592223e-07
3.9592218e-07
3.9592226e-07
3.9592225e-07
3.9592225e-07
3.9592225e-07
3.9592223e-07
3.9592218e-07
3.9592225e-07
3.9592225e-07
3.9592223e-07
3.9592218e-07
3.9592225e-07
3.9592223e-07
3.9592218e-07
3.9592223e-07
3.9592218e-07
3.9592218e-07
3.9722587e-07
3.9684201e-07
3.9682329e-07
3.967357e-07
3.9683875e-07
3.9708917e-07
3.9747435e-07
3.9797107e-07
3.9857361e-07
3.9928543e-07
3.9180027e-07
3.9179451e-07
3.9177262e-07
3.9173796e-07
3.917308e-07
3.9175459e-07
3.9179371e-07
3.9184273e-07
3.9191679e-07
3.9203892e-07
3.9412807e-07
3.9409318e-07
3.9405951e-07
3.9404465e-07
3.9404548e-07
3.9404447e-07
3.9404166e-07
3.9404056e-07
3.9404905e-07
3.9407688e-07
3.957213e-07
3.9571466e-07
3.9570903e-07
3.9570591e-07
3.9570457e-07
3.9570392e-07
3.9570319e-07
3.95702e-07
3.9569976e-07
3.9569748e-07
3.9591059e-07
3.9591022e-07
3.9590988e-07
3.9590969e-07
3.9590958e-07
3.9590946e-07
3.9590934e-07
3.9590921e-07
3.9590911e-07
3.9590908e-07
3.9592045e-07
3.9592042e-07
3.9592038e-07
3.9592036e-07
3.9592034e-07
3.9592031e-07
3.9592029e-07
3.9592027e-07
3.9592024e-07
3.9592023e-07
3.9592128e-07
3.9592127e-07
3.9592126e-07
3.9592124e-07
3.9592124e-07
3.9592123e-07
3.9592121e-07
3.959212e-07
3.959212e-07
3.9592118e-07
3.9592153e-07
3.9592153e-07
3.9592151e-07
3.9592151e-07
3.959215e-07
3.959215e-07
3.9592149e-07
3.9592148e-07
3.9592148e-07
3.9592147e-07
3.9592169e-07
3.9592169e-07
3.9592168e-07
3.9592168e-07
3.9592168e-07
3.9592167e-07
3.9592166e-07
3.9592166e-07
3.9592165e-07
3.9592165e-07
3.9592181e-07
3.9592181e-07
3.959218e-07
3.959218e-07
3.959218e-07
3.9592179e-07
3.9592179e-07
3.9592178e-07
3.9592178e-07
3.9592177e-07
3.9592189e-07
3.9592189e-07
3.9592189e-07
3.9592188e-07
3.9592188e-07
3.9592188e-07
3.9592188e-07
3.9592187e-07
3.9592187e-07
3.9592186e-07
3.9592195e-07
3.9592195e-07
3.9592195e-07
3.9592195e-07
3.9592195e-07
3.9592194e-07
3.9592194e-07
3.9592194e-07
3.9592193e-07
3.9592193e-07
3.95922e-07
3.95922e-07
3.95922e-07
3.95922e-07
3.95922e-07
3.9592199e-07
3.9592199e-07
3.9592199e-07
3.9592199e-07
3.9592198e-07
3.9592204e-07
3.9592204e-07
3.9592204e-07
3.9592204e-07
3.9592203e-07
3.9592203e-07
3.9592203e-07
3.9592203e-07
3.9592203e-07
3.9592202e-07
4.0054162e-07
4.0139248e-07
4.0257996e-07
4.0377776e-07
4.0497637e-07
4.0611678e-07
4.0716588e-07
4.0812815e-07
4.0894777e-07
4.0957778e-07
4.1017475e-07
4.1077451e-07
4.1139662e-07
4.1189823e-07
3.9233788e-07
3.9259083e-07
3.9278574e-07
3.9300009e-07
3.932106e-07
3.9341127e-07
3.9358832e-07
3.9373682e-07
3.9385635e-07
3.9395299e-07
3.9405038e-07
3.9414126e-07
3.9423587e-07
3.9432385e-07
3.9412597e-07
3.9426055e-07
3.9435155e-07
3.9444371e-07
3.9453525e-07
3.9463056e-07
3.9472144e-07
3.947974e-07
3.9485634e-07
3.9490484e-07
3.9494935e-07
3.949929e-07
3.9504159e-07
3.9509959e-07
3.9569922e-07
3.9572626e-07
3.9574271e-07
3.957583e-07
3.9577331e-07
3.9578852e-07
3.9580261e-07
3.9581391e-07
3.9582212e-07
3.9582856e-07
3.9583434e-07
3.9584006e-07
3.9584655e-07
3.9585482e-07
3.959091e-07
3.959108e-07
3.9591166e-07
3.9591254e-07
3.9591337e-07
3.9591419e-07
3.9591488e-07
3.9591545e-07
3.9591585e-07
3.9591618e-07
3.9591648e-07
3.9591678e-07
3.9591714e-07
3.9591764e-07
3.9592022e-07
3.9592034e-07
3.959204e-07
3.9592044e-07
3.959205e-07
3.9592055e-07
3.9592058e-07
3.9592062e-07
3.9592064e-07
3.9592067e-07
3.9592069e-07
3.9592071e-07
3.9592073e-07
3.9592077e-07
3.9592118e-07
3.9592119e-07
3.959212e-07
3.959212e-07
3.9592121e-07
3.9592122e-07
3.9592122e-07
3.9592123e-07
3.9592123e-07
3.9592124e-07
3.9592124e-07
3.9592125e-07
3.9592125e-07
3.9592126e-07
3.9592147e-07
3.9592147e-07
3.9592147e-07
3.9592148e-07
3.9592148e-07
3.9592149e-07
3.9592149e-07
3.9592149e-07
3.9592149e-07
3.959215e-07
3.959215e-07
3.9592151e-07
3.9592151e-07
3.9592151e-07
3.9592164e-07
3.9592165e-07
3.9592165e-07
3.9592166e-07
3.9592166e-07
3.9592166e-07
3.9592166e-07
3.9592166e-07
3.9592166e-07
3.9592167e-07
3.9592167e-07
3.9592168e-07
3.9592168e-07
3.9592167e-07
3.9592177e-07
3.9592178e-07
3.9592177e-07
3.9592178e-07
3.9592178e-07
3.9592178e-07
3.9592178e-07
3.9592178e-07
3.9592178e-07
3.9592179e-07
3.9592179e-07
3.9592179e-07
3.9592179e-07
3.9592179e-07
3.9592186e-07
3.9592186e-07
3.9592186e-07
3.9592187e-07
3.9592187e-07
3.9592187e-07
3.9592187e-07
3.9592187e-07
3.9592187e-07
3.9592187e-07
3.9592188e-07
3.9592188e-07
3.9592188e-07
3.9592188e-07
3.9592193e-07
3.9592193e-07
3.9592193e-07
3.9592193e-07
3.9592193e-07
3.9592193e-07
3.9592193e-07
3.9592193e-07
3.9592194e-07
3.9592194e-07
3.9592194e-07
3.9592194e-07
3.9592194e-07
3.9592195e-07
3.9592198e-07
3.9592198e-07
3.9592198e-07
3.9592198e-07
3.9592198e-07
3.9592198e-07
3.9592198e-07
3.9592198e-07
3.9592199e-07
3.9592199e-07
3.9592199e-07
3.9592199e-07
3.9592199e-07
3.9592199e-07
3.9592202e-07
3.9592202e-07
3.9592202e-07
3.9592202e-07
3.9592202e-07
3.9592202e-07
3.9592202e-07
3.9592202e-07
3.9592203e-07
3.9592203e-07
3.9592203e-07
3.9592203e-07
3.9592203e-07
3.9592203e-07
3.9592206e-07
3.9592203e-07
3.9592199e-07
3.9592193e-07
3.9592186e-07
3.9592176e-07
3.9592162e-07
3.9592141e-07
3.9592107e-07
3.9592067e-07
3.9592518e-07
3.9592205e-07
3.9592202e-07
3.9592197e-07
3.9592192e-07
3.9592184e-07
3.9592174e-07
3.959216e-07
3.9592138e-07
3.9592103e-07
3.9592065e-07
3.9592515e-07
3.9611233e-07
3.9614367e-07
4.2744271e-07
3.9592205e-07
3.9592201e-07
3.9592197e-07
3.9592191e-07
3.9592183e-07
3.9592172e-07
3.9592158e-07
3.9592135e-07
3.9592099e-07
3.9592053e-07
3.9592152e-07
3.960086e-07
3.9609735e-07
4.2609094e-07
3.9592204e-07
3.95922e-07
3.9592196e-07
3.959219e-07
3.9592182e-07
3.9592171e-07
3.9592156e-07
3.9592133e-07
3.9592096e-07
3.9592037e-07
3.9591949e-07
3.9592254e-07
3.9595017e-07
4.2445251e-07
3.9592204e-07
3.95922e-07
3.9592195e-07
3.9592189e-07
3.9592181e-07
3.959217e-07
3.9592155e-07
3.9592131e-07
3.9592093e-07
3.959202e-07
3.9591538e-07
3.9581142e-07
3.9573132e-07
4.2246533e-07
3.9592203e-07
3.95922e-07
3.9592195e-07
3.9592189e-07
3.959218e-07
3.9592169e-07
3.9592153e-07
3.9592129e-07
3.959209e-07
3.9592e-07
3.9590879e-07
3.9567188e-07
3.9546393e-07
4.2022516e-07
3.9592203e-07
3.9592199e-07
3.9592194e-07
3.9592188e-07
3.959218e-07
3.9592168e-07
3.9592153e-07
3.9592128e-07
3.9592088e-07
3.959197e-07
3.9589971e-07
3.9552036e-07
3.9516223e-07
4.1791248e-07
3.9592203e-07
3.9592199e-07
3.9592194e-07
3.9592188e-07
3.9592179e-07
3.9592168e-07
3.9592152e-07
3.9592128e-07
3.9592086e-07
3.9591933e-07
3.9588893e-07
3.9538076e-07
3.9486813e-07
4.1579015e-07
3.9592203e-07
3.9592199e-07
3.9592194e-07
3.9592188e-07
3.9592179e-07
3.9592168e-07
3.9592151e-07
3.9592127e-07
3.9592085e-07
3.95919e-07
3.9587936e-07
3.9527498e-07
3.9464124e-07
4.1405221e-07
3.9592203e-07
3.9592199e-07
3.9592194e-07
3.9592188e-07
3.9592179e-07
3.9592168e-07
3.9592151e-07
3.9592126e-07
3.9592082e-07
3.9591871e-07
3.9587118e-07
3.9518649e-07
3.9441662e-07
4.1238223e-07
3.9592206e-07
3.9592203e-07
3.9592199e-07
3.9592193e-07
3.9592186e-07
3.9592176e-07
3.9592162e-07
3.959214e-07
3.9592106e-07
3.9592033e-07
3.9591353e-07
3.9575456e-07
3.9562236e-07
4.2034817e-07
3.9592206e-07
3.9592202e-07
3.9592198e-07
3.9592193e-07
3.9592185e-07
3.9592175e-07
3.959216e-07
3.9592139e-07
3.9592103e-07
3.9592023e-07
3.959107e-07
3.9569942e-07
3.9550983e-07
4.194513e-07
3.9592205e-07
3.9592202e-07
3.9592197e-07
3.9592192e-07
3.9592184e-07
3.9592174e-07
3.9592159e-07
3.9592137e-07
3.9592101e-07
3.959201e-07
3.9590739e-07
3.9564237e-07
3.953883e-07
4.1852844e-07
3.9592205e-07
3.9592201e-07
3.9592197e-07
3.9592191e-07
3.9592183e-07
3.9592173e-07
3.9592159e-07
3.9592136e-07
3.9592099e-07
3.9591997e-07
3.9590356e-07
3.955825e-07
3.9525775e-07
4.1757501e-07
3.9592205e-07
3.9592201e-07
3.9592197e-07
3.9592191e-07
3.9592183e-07
3.9592172e-07
3.9592157e-07
3.9592135e-07
3.9592098e-07
3.9591981e-07
3.9589913e-07
3.9551889e-07
3.9511553e-07
4.1657535e-07
3.9592205e-07
3.9592201e-07
3.9592196e-07
3.959219e-07
3.9592183e-07
3.9592172e-07
3.9592156e-07
3.9592133e-07
3.9592096e-07
3.9591964e-07
3.9589398e-07
3.9545087e-07
3.9495748e-07
4.155097e-07
3.9592204e-07
3.9592201e-07
3.9592196e-07
3.959219e-07
3.9592182e-07
3.9592171e-07
3.9592156e-07
3.9592133e-07
3.9592095e-07
3.9591944e-07
3.9588806e-07
3.9537871e-07
3.9479149e-07
4.1436922e-07
3.9592204e-07
3.9592201e-07
3.9592196e-07
3.959219e-07
3.9592182e-07
3.9592171e-07
3.9592155e-07
3.9592132e-07
3.9592093e-07
3.9591922e-07
3.9588151e-07
3.953038e-07
3.946125e-07
4.1316439e-07
3.9592204e-07
3.9592201e-07
3.9592196e-07
3.959219e-07
3.9592182e-07
3.9592171e-07
3.9592155e-07
3.9592132e-07
3.9592092e-07
3.9591896e-07
3.9587389e-07
3.9522225e-07
3.9440966e-07
4.1182597e-07
3.9592205e-07
3.9592201e-07
3.9592196e-07
3.959219e-07
3.9592182e-07
3.9592171e-07
3.9592156e-07
3.9592132e-07
3.959209e-07
3.9591863e-07
3.958645e-07
3.9513265e-07
3.9417961e-07
4.1032683e-07
3.9592204e-07
3.9592204e-07
3.9592204e-07
3.9592204e-07
3.9592204e-07
3.9592205e-07
3.9592205e-07
3.9592201e-07
3.9592201e-07
3.9592201e-07
3.9592201e-07
3.9592201e-07
3.9592201e-07
3.9592201e-07
3.9592201e-07
3.9592196e-07
3.9592196e-07
3.9592196e-07
3.9592196e-07
3.9592196e-07
3.9592196e-07
3.9592196e-07
3.9592196e-07
3.959219e-07
3.959219e-07
3.959219e-07
3.959219e-07
3.959219e-07
3.959219e-07
3.959219e-07
3.959219e-07
3.959219e-07
3.9592182e-07
3.9592182e-07
3.9592182e-07
3.9592182e-07
3.9592182e-07
3.9592182e-07
3.9592182e-07
3.9592182e-07
3.9592182e-07
3.9592171e-07
3.9592171e-07
3.9592171e-07
3.9592171e-07
3.9592171e-07
3.9592171e-07
3.9592171e-07
3.9592171e-07
3.9592171e-07
3.9592171e-07
3.9592155e-07
3.9592155e-07
3.9592155e-07
3.9592155e-07
3.9592155e-07
3.9592155e-07
3.9592155e-07
3.9592155e-07
3.9592155e-07
3.9592156e-07
3.959213e-07
3.9592131e-07
3.959213e-07
3.959213e-07
3.959213e-07
3.959213e-07
3.959213e-07
3.9592131e-07
3.9592131e-07
3.9592131e-07
3.9592132e-07
3.9592069e-07
3.959207e-07
3.9592071e-07
3.9592072e-07
3.9592074e-07
3.9592075e-07
3.9592077e-07
3.9592079e-07
3.9592081e-07
3.9592083e-07
3.9592086e-07
3.9591397e-07
3.9591425e-07
3.9591453e-07
3.9591484e-07
3.9591518e-07
3.9591553e-07
3.959159e-07
3.9591626e-07
3.9591664e-07
3.9591701e-07
3.9591739e-07
3.9591782e-07
3.9576774e-07
3.9577365e-07
3.957798e-07
3.9578661e-07
3.9579398e-07
3.9580143e-07
3.958094e-07
3.9581744e-07
3.9582566e-07
3.9583386e-07
3.9584199e-07
3.9585073e-07
3.9444397e-07
3.9447748e-07
3.9451281e-07
3.9455309e-07
3.9459842e-07
3.9464841e-07
3.9470076e-07
3.9475766e-07
3.948171e-07
3.948796e-07
3.9494377e-07
3.9500832e-07
3.9507208e-07
3.9218173e-07
3.9226915e-07
3.9237361e-07
3.9248832e-07
3.9261341e-07
3.9275126e-07
3.9289746e-07
3.9304936e-07
3.932074e-07
3.9336576e-07
3.9352752e-07
3.9368589e-07
3.9385332e-07
3.9402805e-07
3.9916578e-07
3.9962772e-07
4.0021015e-07
4.0082845e-07
4.0150625e-07
4.0224425e-07
4.0300763e-07
4.0382875e-07
4.0467259e-07
4.0555373e-07
4.0645675e-07
4.0735389e-07
4.0821868e-07
4.0904426e-07
)
;

boundaryField
{
    Side
    {
        type            empty;
    }
    Inlet
    {
        type            inletOutlet;
        inletValue      uniform 3.9592226e-07;
        value           nonuniform List<scalar> 
42
(
3.9592226e-07
3.9592226e-07
3.9592226e-07
3.9592226e-07
3.9592226e-07
3.9592226e-07
3.9592226e-07
3.9592226e-07
3.9592226e-07
3.9592226e-07
3.9592226e-07
3.9592226e-07
3.9592226e-07
3.9592226e-07
3.9592226e-07
3.9592226e-07
3.9592226e-07
3.9592226e-07
3.9592226e-07
3.9592226e-07
3.9592226e-07
3.9592226e-07
3.9592226e-07
3.9592226e-07
3.9592226e-07
3.9592226e-07
3.9592226e-07
3.9592226e-07
3.9592226e-07
3.9592226e-07
3.9592226e-07
3.9592226e-07
3.9592226e-07
3.9592226e-07
3.9592226e-07
3.9592226e-07
3.9592226e-07
3.9592226e-07
3.9592226e-07
3.9592226e-07
3.9592226e-07
3.9592226e-07
)
;
    }
    Airfoil
    {
        type            nutUSpaldingWallFunction;
        value           nonuniform List<scalar> 
57
(
1.4188516e-05
1.4135084e-05
1.4089274e-05
1.4044797e-05
1.39994e-05
1.3953443e-05
1.3906278e-05
1.3861895e-05
1.3821132e-05
1.3783984e-05
1.3727114e-05
1.3776244e-05
1.3802339e-05
1.3823728e-05
1.3848376e-05
1.3872112e-05
1.3884414e-05
1.3882532e-05
1.3876981e-05
1.3878468e-05
1.3888164e-05
1.3903299e-05
1.3923448e-05
1.3940981e-05
1.4426225e-05
1.4292063e-05
1.4189037e-05
1.4119367e-05
1.4076325e-05
1.4048045e-05
1.4025e-05
1.4014914e-05
1.4037249e-05
1.4722847e-05
1.4625138e-05
1.4541126e-05
1.4471347e-05
1.4416838e-05
1.4378504e-05
1.4356601e-05
1.4353195e-05
1.4373396e-05
1.4416911e-05
1.4490934e-05
1.4470915e-05
1.4452393e-05
1.4435012e-05
1.442053e-05
1.4410036e-05
1.4399735e-05
1.4395454e-05
1.4394628e-05
1.4397822e-05
1.4405005e-05
1.441441e-05
1.442667e-05
1.44452e-05
)
;
    }
    Outlet
    {
        type            zeroGradient;
    }
    Flap
    {
        type            nutUSpaldingWallFunction;
        value           nonuniform List<scalar> 0();
    }
    procBoundary1to0
    {
        type            processor;
        value           nonuniform List<scalar> 
58
(
3.9592226e-07
3.9592226e-07
3.9592226e-07
3.9592226e-07
3.9592226e-07
3.9592226e-07
3.9592226e-07
3.9592226e-07
3.9592226e-07
3.9592226e-07
3.9592225e-07
3.9592225e-07
3.9592225e-07
3.9592223e-07
3.9592218e-07
3.9592218e-07
3.9592223e-07
3.9592225e-07
3.9592225e-07
3.9592225e-07
3.9592226e-07
3.9592226e-07
3.9592226e-07
3.9592226e-07
3.9592226e-07
3.9592226e-07
3.9592226e-07
3.9592226e-07
3.9592226e-07
3.9592207e-07
3.9592204e-07
3.9592199e-07
3.9592194e-07
3.9592187e-07
3.9592178e-07
3.9592164e-07
3.9592143e-07
3.9592111e-07
3.9592077e-07
3.9592508e-07
3.9616707e-07
3.9616707e-07
3.9621893e-07
4.2867188e-07
3.9592207e-07
3.9592203e-07
3.9592199e-07
3.9592194e-07
3.9592187e-07
3.9592177e-07
3.9592163e-07
3.9592142e-07
3.9592108e-07
3.9592042e-07
3.959158e-07
3.9580665e-07
3.9572553e-07
4.2133148e-07
)
;
    }
    procBoundary1to2
    {
        type            processor;
        value           nonuniform List<scalar> 
73
(
3.9592226e-07
3.9592226e-07
3.9592226e-07
3.9592226e-07
3.9592226e-07
3.9592226e-07
3.9592226e-07
3.9592226e-07
3.9592226e-07
3.9592225e-07
3.9592225e-07
3.9592225e-07
3.9592223e-07
3.9592218e-07
3.9212716e-07
3.9873222e-07
3.9592226e-07
3.9592226e-07
3.9592226e-07
3.9592226e-07
3.9592226e-07
3.9592226e-07
3.9592226e-07
3.9592226e-07
3.9592226e-07
3.9592226e-07
3.9592226e-07
3.9592226e-07
3.9592226e-07
3.9592226e-07
3.9592225e-07
3.9592225e-07
3.9592225e-07
3.9592225e-07
3.9592225e-07
3.9592225e-07
3.9592223e-07
3.9592223e-07
3.9592218e-07
3.9592218e-07
3.9698073e-07
3.9186138e-07
3.9419756e-07
3.9573293e-07
3.9591126e-07
3.9592051e-07
3.9592129e-07
3.9592155e-07
3.9592171e-07
3.9592182e-07
3.959219e-07
3.9592196e-07
3.9592201e-07
3.9592204e-07
3.9592204e-07
3.9592204e-07
3.9592201e-07
3.9592196e-07
3.9592196e-07
3.959219e-07
3.9592182e-07
3.9592182e-07
3.9592171e-07
3.9592156e-07
3.9592156e-07
3.9592131e-07
3.9592069e-07
3.9592069e-07
3.9591378e-07
3.9576356e-07
3.9576356e-07
3.9442485e-07
3.9442485e-07
)
;
    }
}


// ************************************************************************* //
