/*--------------------------------*- C++ -*----------------------------------*\
| =========                 |                                                 |
| \\      /  F ield         | OpenFOAM: The Open Source CFD Toolbox           |
|  \\    /   O peration     | Version:  2206                                  |
|   \\  /    A nd           | Website:  www.openfoam.com                      |
|    \\/     M anipulation  |                                                 |
\*---------------------------------------------------------------------------*/
FoamFile
{
    version     2.0;
    format      ascii;
    arch        "LSB;label=32;scalar=64";
    class       volScalarField;
    location    "0.02";
    object      p;
}
// * * * * * * * * * * * * * * * * * * * * * * * * * * * * * * * * * * * * * //

dimensions      [1 -1 -2 0 0 0 0];

internalField   nonuniform List<scalar> 
1396
(
1
1
1
1
1
1
1
1
1
1
1
1
1
1
1
1
1
1
1
1
1
1
1
1
1
1
1
1
1
1
1
1
1
1
1
1
1
1
1
1
1
1
1
1
1
1
1
1
1
1
1
1
1
1
1
1
1
1
1
1
1
1
1
1
1
1
1
1
1
1
1
1
1
1
1
1
1
1
1
1
1
1
1
1
1
1
1
1
1
1
1
1
1
1
1
1
1
1
1
1
1
1
1
1
1
1
1
1
1
1
1
1
1
1
1
1
1
1
1
1
1
1
1
1
1
1
1
1
1
1
1
1
1
1
1
1
1
1
1
1
1
1
1
1
1
1
1
1
1
1
1
1
1
1
1
1
1
1
1
1
1
1
1
1
1
1
1
1
1
1
1
1
1
1
1
1
1
1
1
1
1
1
1
1
1
1
1
1
1
1
1
1
1
1
1
1
1
1
1
1
1
1
1
1
1
1
1
1
1
1
1
1
1
1
1
1
1
1
1
1
1
1
1
1
1
1
1
1
1
1
1
1
1
1
1
1
1
1
1
1
1
1
1
1
1
1
1
1
1
1
1
1
1
1
1
1
1
1
1
1
1
1
1
1
1
1
1
1
1
1
1
1
1
1
1
1
1
1
1
1
1
1
1
1
1
1
1
1
1
1
1
1
1
1
1
1
1
1
1
1
1
1
1
1
1
1
1
1
1
1
1
1
1
1
1
1
1
1
1
1
1
1
1
1
1
1
1
1
1
1
1
1
1
1
1
1
1
1
1
1
1
1
1
1
1
1
1
1
1
1
1
1
1
1
1
1
1
1
1
1
1
1
1
1
1
1
1
1
1
1
1
1
1
1
1
1
1
1
1
1
1
1
1
1
1
1
1
1
1
1
1
1
1
1
1
1
1
1
1
1
1
1
1
1
1
1
1
1
1
1
1
1
1
1
1
1
1
1
1
1
1
1
1
1
1
1
1
1
1
1
1
1
1
1
1
1
1
1
1
1
1
1
1
1
1
1
1
1
1
1
1
1
1
1
1
1
1
1
1
1
1
1
1
1
1
1
1
1
1
1
1
1
1
1
1
1
1
1
1
1
1
1
1
1
1
1
1
1
1
1
1
1
1
1
1
1
1
1
1
1
1
1
1
1
1
1
1
1
1
1
1
1
1
1
1
1
1
1
1
1
1
1
1
1
1
1
1
1
1
1
1
1
1
1
1
1
1
1
1
1
1
1
1
1
1
1
1
1
1
1
1
1
1
1
1
1
1
1
1
1
1
1
1
1
1
1
1
1
1
1
1
1
1
1
1
1
1
1
1
1
1
1
1
1
1
1
1
1
1
1
1
1
1
1
1
1
1
1
1
1
1
1
1
1
1
1
1
1
1
1
1
1
1
1
1
1
1
1
1
1
1
1
1
1
1
1
1
1
1
1
1
1
1
1
1
0.85612607
0.85351335
0.85172285
0.85088249
0.85089052
0.85147922
0.85236531
0.8534981
0.85492639
0.85669649
0.98691331
0.98659588
0.98642781
0.98637797
0.98640388
0.98646912
0.98654865
0.98663667
0.98671382
0.98674385
0.99816708
0.99810476
0.99805982
0.99803387
0.99802524
0.99802326
0.99802134
0.99802004
0.99802072
0.99803734
0.99985986
0.99985289
0.99984784
0.99984468
0.99984309
0.99984242
0.9998419
0.99984119
0.99983955
0.99983652
0.99999529
0.99999505
0.99999488
0.99999477
0.99999471
0.99999466
0.99999461
0.99999455
0.99999446
0.99999434
0.99999982
0.99999981
0.9999998
0.99999979
0.99999979
0.99999979
0.99999978
0.99999978
0.99999977
0.99999976
1
1
1
1
1
0.99999999
0.99999999
0.99999999
0.99999999
0.99999999
1
1
1
1
1
1
1
1
1
1
1
1
1
1
1
1
1
1
1
1
1
1
1
1
1
1
1
1
1
1
1
1
1
1
1
1
1
1
1
1
1
1
1
1
1
1
1
1
1
1
1
1
1
1
1
1
1
1
1
1
1
1
1
1
1
1
1
1
1
1
0.85954054
0.86590466
0.87237322
0.87826608
0.88390469
0.88992359
0.89637338
0.90250457
0.90747343
0.91133937
0.91457021
0.91759135
0.92058043
0.92412711
0.98679778
0.98783684
0.98868772
0.98946026
0.99019668
0.9909528
0.99170988
0.99238278
0.99290331
0.99330732
0.99364629
0.99395608
0.99425548
0.9945987
0.99812702
0.9982869
0.99840141
0.99850659
0.99860745
0.99871203
0.99881614
0.99890641
0.99897515
0.99902911
0.99907603
0.99912036
0.99916841
0.99923351
0.99983766
0.99985708
0.99987053
0.99988211
0.99989309
0.99990436
0.99991523
0.9999242
0.99993064
0.99993548
0.99993967
0.99994371
0.99994816
0.99995452
0.9999945
0.9999953
0.99999579
0.99999621
0.99999662
0.99999702
0.99999738
0.99999767
0.99999788
0.99999804
0.99999818
0.99999832
0.99999849
0.99999875
0.99999978
0.99999982
0.99999984
0.99999986
0.99999988
0.99999989
0.99999991
0.99999992
0.99999993
0.99999993
0.99999994
0.99999994
0.99999995
0.99999996
0.99999999
1
1
1
1
1
1
1
1
1
1
1
1
1
1
1
1
1
1
1
1
1
1
1
1
1
1
1
1
1
1
1
1
1
1
1
1
1
1
1
1
1
1
1
1
1
1
1
1
1
1
1
1
1
1
1
1
1
1
1
1
1
1
1
1
1
1
1
1
1
1
1
1
1
1
1
1
1
1
1
1
1
1
1
1
1
1
1
1
1
1
1
1
1
1
1
1
1
1
1
1
1
1
1
1
1
1
1
1
1
1
1
1
1
1
1
1
1
1
1
1
1.0000001
1.0000034
1
1
1
1
1
1
1
1
1
1.0000001
1.0000039
1.0002163
1.0004713
1.0165572
1
1
1
1
1
1
1
1
1
1.0000001
1.0000013
1.0000698
1.000241
1.00751
1
1
1
1
1
1
1
1
1
1
1.0000001
1.0000002
0.99979129
0.99698902
1
1
1
1
1
1
1
1
1
0.99999996
0.99999749
0.99990891
0.99912504
0.98468895
1
1
1
1
1
1
1
1
1
0.99999988
0.99999316
0.99978909
0.99829661
0.9712073
1
1
1
1
1
1
1
1
1
0.99999974
0.99998709
0.99965531
0.99735994
0.95793113
1
1
1
1
1
1
1
1
0.99999999
0.99999957
0.99997976
0.99953258
0.99650547
0.94681504
1
1
1
1
1
1
1
1
0.99999999
0.99999941
0.99997332
0.99943761
0.99578272
0.93830905
1
1
1
1
1
1
1
1
0.99999998
0.99999926
0.99996736
0.99935394
0.99510377
0.93074263
1
1
1
1
1
1
1
1
1
0.99999994
0.99999625
0.99987028
0.99889825
0.97810438
1
1
1
1
1
1
1
1
1
0.9999999
0.99999442
0.99982439
0.99856873
0.97262479
1
1
1
1
1
1
1
1
1
0.99999986
0.99999224
0.99977607
0.998213
0.96712448
1
1
1
1
1
1
1
1
1
0.9999998
0.9999897
0.9997243
0.99782661
0.96152501
1
1
1
1
1
1
1
1
0.99999999
0.99999974
0.99998673
0.99966839
0.99740245
0.95572832
1
1
1
1
1
1
1
1
0.99999999
0.99999966
0.99998324
0.9996077
0.99693312
0.94964189
1
1
1
1
1
1
1
1
0.99999999
0.99999957
0.9999792
0.99954246
0.9964173
0.94327113
1
1
1
1
1
1
1
1
0.99999999
0.99999946
0.99997472
0.99947354
0.99585445
0.93668511
1
1
1
1
1
1
1
1
0.99999999
0.99999934
0.99996941
0.99939695
0.99520338
0.92941039
1
1
1
1
1
1
1
1
0.99999998
0.99999917
0.99996252
0.99931286
0.99447643
0.9213484
1
1
1
1
1
1
1
1
1
1
1
1
1
1
1
1
1
1
1
1
1
1
1
1
1
1
1
1
1
1
1
1
1
1
1
1
1
1
1
1
1
1
1
1
1
1
1
1
1
1
1
1
1
1
1
1
1
1
1
1
1
1
1
1
1
1
1
1
1
1
1
1
0.99999991
0.99999991
0.99999992
0.99999992
0.99999993
0.99999994
0.99999994
0.99999995
0.99999995
0.99999996
0.99999997
0.99999697
0.99999709
0.99999723
0.99999738
0.99999754
0.99999771
0.99999788
0.99999806
0.99999824
0.99999841
0.99999859
0.9999988
0.99989365
0.99989762
0.99990199
0.99990681
0.99991205
0.99991731
0.99992296
0.99992865
0.99993446
0.99994025
0.99994594
0.99995218
0.99857549
0.99860851
0.99864676
0.99868952
0.99873729
0.99879027
0.99884469
0.99890377
0.99896482
0.9990285
0.99909377
0.99915928
0.99922841
0.9881642
0.98840912
0.98871189
0.98905757
0.98943587
0.98984664
0.99030401
0.99076248
0.9912554
0.99175952
0.99227888
0.9928087
0.99333681
0.99387406
0.86707284
0.86908134
0.87149677
0.87424565
0.87726438
0.88056996
0.88429653
0.88806271
0.89219968
0.89651033
0.90105122
0.90578708
0.91052637
0.91509022
)
;

boundaryField
{
    Side
    {
        type            empty;
    }
    Inlet
    {
        type            inletOutlet;
        inletValue      uniform 1;
        value           nonuniform List<scalar> 
42
(
1
1
1
1
1
1
1
1
1
1
1
1
1
1
1
1
1
1
1
1
1
1
1
1
1
1
1
1
1
1
1
1
1
1
1
1
1
1
1
1
1
1
)
;
    }
    Airfoil
    {
        type            zeroGradient;
    }
    Outlet
    {
        type            zeroGradient;
    }
    Flap
    {
        type            zeroGradient;
    }
    procBoundary1to0
    {
        type            processor;
        value           nonuniform List<scalar> 
58
(
1
1
1
1
1
1
1
1
1
1
1
1
1
1
1
1
1
1
1
1
1
1
1
1
1
1
1
1
1
1
1
1
1
1
1
1
1
1
1.0000001
1.0000033
1.0002249
1.0002249
1.0007786
1.0243489
1
1
1
1
1
1
1
1
1
0.99999996
0.99999769
0.99991306
0.99921068
0.98367415
)
;
    }
    procBoundary1to2
    {
        type            processor;
        value           nonuniform List<scalar> 
73
(
1
1
1
1
1
1
1
1
1
1
1
1
1
1
0.98793466
0.86537337
1
1
1
1
1
1
1
1
1
1
1
1
1
1
1
1
1
1
1
1
1
1
1
1
0.85910912
0.98735497
0.99824284
0.99986793
0.99999559
0.99999983
1
1
1
1
1
1
1
1
1
1
1
1
1
1
1
1
1
1
1
1
0.9999999
0.9999999
0.99999686
0.99989017
0.99989017
0.99854997
0.99854997
)
;
    }
}


// ************************************************************************* //
