/*--------------------------------*- C++ -*----------------------------------*\
| =========                 |                                                 |
| \\      /  F ield         | OpenFOAM: The Open Source CFD Toolbox           |
|  \\    /   O peration     | Version:  2206                                  |
|   \\  /    A nd           | Website:  www.openfoam.com                      |
|    \\/     M anipulation  |                                                 |
\*---------------------------------------------------------------------------*/
FoamFile
{
    version     2.0;
    format      ascii;
    arch        "LSB;label=32;scalar=64";
    class       surfaceScalarField;
    location    "0.02";
    object      phi;
}
// * * * * * * * * * * * * * * * * * * * * * * * * * * * * * * * * * * * * * //

dimensions      [1 0 -1 0 0 0 0];

oriented        oriented;

internalField   nonuniform List<scalar> 
2677
(
-0.001548245
0.28219208
-0.0017230846
0.28219208
-0.0018979251
0.28219208
-0.0020727648
0.28219208
-0.0022476062
0.28219208
-0.0024224458
0.28219208
0.28219208
-0.001548245
0.28236692
-0.0017230846
0.28236692
-0.0018979251
0.28236692
-0.0020727657
0.28236692
-0.0022476053
0.28236692
-0.002422445
0.28236692
-0.0025972855
0.28236692
-0.002772126
0.28236692
-0.0029469665
0.28236692
-0.0031218062
0.28236692
-0.0032966467
0.28236692
-0.0034714872
0.28236692
-0.0036463271
0.28236692
0.28236692
-0.0038211673
-0.0015482441
0.28254176
-0.0017230855
0.28254176
-0.0018979252
0.28254176
-0.0020727648
0.28254176
-0.0022476053
0.28254176
-0.0024224458
0.28254176
-0.0025972863
0.28254176
-0.002772126
0.28254176
-0.0029469657
0.28254176
-0.003121807
0.28254176
-0.0032966467
0.28254176
-0.0034714863
0.28254176
-0.003646327
0.28254176
0.28254176
-0.0038211672
-0.001548245
0.2827166
-0.0017230846
0.2827166
-0.0018979251
0.2827166
-0.0020727657
0.2827166
-0.0022476053
0.2827166
-0.0024224458
0.2827166
-0.0025972855
0.2827166
-0.002772126
0.2827166
-0.0029469665
0.2827166
-0.0031218062
0.2827166
-0.0032966467
0.2827166
-0.0034714872
0.2827166
-0.003646327
0.2827166
0.2827166
-0.0038211673
-0.001548245
0.28289144
-0.0017230846
0.28289144
-0.0018979251
0.28289144
-0.0020727657
0.28289144
-0.0022476053
0.28289144
-0.0024224458
0.28289144
-0.0025972855
0.28289144
-0.002772126
0.28289144
-0.0029469665
0.28289144
-0.0031218062
0.28289144
-0.0032966467
0.28289144
-0.0034714872
0.28289144
-0.003646327
0.28289144
0.28289144
-0.0038211673
-0.0015482441
0.28306628
-0.0017230855
0.28306628
-0.0018979252
0.28306628
-0.0020727648
0.28306628
-0.0022476053
0.28306628
-0.0024224458
0.28306628
-0.0025972863
0.28306628
-0.002772126
0.28306628
-0.0029469657
0.28306628
-0.003121807
0.28306628
-0.0032966467
0.28306628
-0.0034714863
0.28306628
-0.003646327
0.28306628
0.28306628
-0.0038211672
-0.001548245
0.28324112
-0.0017230846
0.28324112
-0.0018979251
0.28324112
-0.0020727657
0.28324112
-0.0022476053
0.28324112
-0.002422445
0.28324112
-0.0025972855
0.28324112
-0.002772126
0.28324112
-0.0029469665
0.28324112
-0.0031218062
0.28324112
-0.0032966467
0.28324112
-0.0034714872
0.28324112
-0.0036463271
0.28324112
0.28324112
-0.0038211673
-0.001548245
0.28341596
-0.0017230846
0.28341596
-0.0018979251
0.28341596
-0.0020727648
0.28341596
-0.0022476062
0.28341596
-0.0024224458
0.28341596
-0.0025972863
0.28341596
-0.002772126
0.28341596
-0.0029469665
0.28341596
-0.0031218062
0.28341596
-0.0032966467
0.28341596
-0.0034714863
0.28341596
-0.003646327
0.28341596
0.28341596
-0.0038211672
-0.0015482441
0.2835908
-0.0017230846
0.2835908
-0.0018979243
0.2835908
-0.0020727657
0.2835908
-0.0022476053
0.2835908
-0.0024224458
0.2835908
-0.0025972855
0.2835908
-0.002772126
0.2835908
-0.0029469657
0.2835908
-0.003121807
0.2835908
-0.0032966467
0.2835908
-0.0034714872
0.2835908
-0.003646327
0.2835908
0.2835908
-0.0038211673
-0.001548245
0.28376564
-0.0017230855
0.28376564
-0.0018979252
0.28376564
-0.0020727648
0.28376564
-0.0022476053
0.28376564
-0.0024224458
0.28376564
-0.0025972863
0.28376564
-0.002772126
0.28376564
-0.0029469665
0.28376564
-0.0031218062
0.28376564
-0.0032966467
0.28376564
-0.0034714872
0.28376564
-0.003646327
0.28376564
0.28376564
-0.0038211672
-0.0015482441
0.28394048
-0.0017230846
0.28394048
-0.0018979251
0.28394048
-0.0020727657
0.28394048
-0.0022476053
0.28394048
-0.0024224458
0.28394048
-0.0025972855
0.28394048
-0.002772126
0.28394048
-0.0029469665
0.28394048
-0.0031218062
0.28394048
-0.0032966467
0.28394048
-0.0034714863
0.28394048
-0.0036463271
0.28394048
0.28394048
-0.0038211673
-0.00086154275
0.28411532
-0.0010363824
0.28411532
-0.0012112229
0.28411532
-0.0013860626
0.28411532
-0.0015609031
0.28411532
-0.0017357427
0.28411532
-0.0019105833
0.28411532
-0.0020854238
0.28411532
-0.0022602643
0.28411532
-0.0024351048
0.28411532
-0.0026099444
0.28411532
-0.002784785
0.28411532
-0.0029596248
0.28411532
0.28411532
-0.003134465
-0.00086154275
0.28429016
-0.0010363824
0.28429016
-0.0012112229
0.28429016
-0.0013860634
0.28429016
-0.0015609031
0.28429016
-0.0017357436
0.28429016
-0.0019105841
0.28429016
-0.0020854246
0.28429016
-0.0022602634
0.28429016
-0.0024351039
0.28429016
-0.0026099444
0.28429016
-0.0027847841
0.28429016
-0.0029596248
0.28429016
0.28429016
-0.003134465
-0.00086154189
0.284465
-0.0010363833
0.284465
-0.0012112229
0.284465
-0.0013860626
0.284465
-0.0015609039
0.284465
-0.0017357436
0.284465
-0.0019105833
0.284465
-0.0020854238
0.284465
-0.0022602643
0.284465
-0.0024351039
0.284465
-0.0026099444
0.284465
-0.002784785
0.284465
-0.0029596248
0.284465
0.284465
-0.003134465
-0.00086154275
0.28463984
-0.0010363824
0.28463984
-0.0012112229
0.28463984
-0.0013860634
0.28463984
-0.0015609031
0.28463984
-0.0017357436
0.28463984
-0.0019105841
0.28463984
-0.0020854238
0.28463984
-0.0022602643
0.28463984
-0.0024351048
0.28463984
-0.0026099444
0.28463984
-0.002784785
0.28463984
-0.0029596249
0.28463984
0.28463984
-0.003134465
-0.00086154275
0.28481468
-0.0010363824
0.28481468
-0.0012112229
0.28481468
-0.0013860626
0.28481468
-0.0015609031
0.28481468
-0.0017357436
0.28481468
-0.0019105833
0.28481468
-0.0020854238
0.28481468
-0.0022602634
0.28481468
-0.0024351039
0.28481468
-0.0026099444
0.28481468
-0.0027847841
0.28481468
-0.0029596248
0.28481468
0.28481468
-0.003134465
-0.00086154189
0.28498952
-0.0010363824
0.28498952
-0.0012112229
0.28498952
-0.0013860634
0.28498952
-0.0015609031
0.28498952
-0.0017357427
0.28498952
-0.0019105841
0.28498952
-0.0020854238
0.28498952
-0.0022602643
0.28498952
-0.0024351039
0.28498952
-0.0026099436
0.28498952
-0.002784785
0.28498952
-0.0029596248
0.28498952
0.28498952
-0.003134465
-0.00086154275
-0.0010363833
-0.0012112229
-0.0013860626
-0.0015609031
-0.0017357436
-0.0019105833
-0.0020854238
-0.0022602643
-0.0024351048
-0.0026099444
-0.0027847841
-0.0029596248
-0.003134465
-0.28603856
0.0031724406
0.28638824
-0.0035221211
-0.28568888
0.0031724407
-0.0035221211
-0.2853392
0.0031724406
-0.0035221211
-0.28498952
0.0031724407
-0.0035221211
-0.28463984
0.0031724406
-0.0035221211
-0.28429016
0.0031724407
-0.0035221211
-0.28394048
0.0031724406
-0.0035221211
-0.2835908
0.0031724407
-0.0035221211
-0.28324112
0.0031724406
-0.0035221211
0.0031724407
-0.0035221211
-0.28603856
0.0028227603
0.28638824
-0.28568888
0.0028227602
-0.2853392
0.0028227602
-0.28498952
0.0028227601
-0.28463984
0.0028227601
-0.28429016
0.002822761
-0.28394048
0.0028227601
-0.2835908
0.0028227601
-0.28324112
0.0028227601
0.0028227601
-0.28603856
0.00247308
0.28638824
-0.28568888
0.0024730799
-0.2853392
0.00247308
-0.28498952
0.00247308
-0.28463984
0.0024730791
-0.28429016
0.0024730799
-0.28394048
0.00247308
-0.2835908
0.00247308
-0.28324112
0.0024730799
0.00247308
-0.28603856
0.0021233998
0.28638824
-0.28568888
0.0021233989
-0.2853392
0.0021233998
-0.28498952
0.0021233998
-0.28463984
0.0021233989
-0.28429016
0.0021233998
-0.28394048
0.0021233998
-0.2835908
0.0021233989
-0.28324112
0.0021233998
0.0021233998
-0.28603856
0.0017737196
0.28638824
-0.28568888
0.0017737188
-0.2853392
0.0017737196
-0.28498952
0.0017737188
-0.28463984
0.0017737188
-0.28429016
0.0017737196
-0.28394048
0.0017737188
-0.2835908
0.0017737196
-0.28324112
0.0017737188
0.0017737188
-0.28603856
0.0014240386
0.28638824
-0.28568888
0.0014240386
-0.2853392
0.0014240386
-0.28498952
0.0014240386
-0.28463984
0.0014240386
-0.28429016
0.0014240386
-0.28394048
0.0014240394
-0.2835908
0.0014240386
-0.28324112
0.0014240386
0.0014240386
-0.28603856
0.0010743584
0.28638824
-0.28568888
0.0010743584
-0.2853392
0.0010743584
-0.28498952
0.0010743576
-0.28463984
0.0010743584
-0.28429016
0.0010743584
-0.28394048
0.0010743584
-0.2835908
0.0010743584
-0.28324112
0.0010743584
0.0010743584
-0.28603856
0.00072467825
0.28638824
-0.28568888
0.00072467739
-0.2853392
0.00072467825
-0.28498952
0.00072467825
-0.28463984
0.0007246774
-0.28429016
0.00072467825
-0.28394048
0.0007246774
-0.2835908
0.00072467825
-0.28324112
0.00072467825
0.0007246774
-0.28603856
0.00037499723
0.28638824
-0.28568888
0.00037499723
-0.2853392
0.00037499809
-0.28498952
0.00037499723
-0.28463984
0.00037499723
-0.28429016
0.00037499808
-0.28394048
0.00037499723
-0.2835908
0.00037499723
-0.28324112
0.00037499808
0.00037499723
-0.28603856
2.5317061e-05
0.28638824
-0.28568888
2.5317057e-05
-0.2853392
2.5317061e-05
-0.28498952
2.5317061e-05
-0.28463984
2.5317061e-05
-0.28429016
2.5317057e-05
-0.28394048
2.5317061e-05
-0.2835908
2.5317061e-05
-0.28324112
2.5317057e-05
2.5317061e-05
-0.28603856
-0.00032436311
0.28638824
-0.28568888
-0.00032436311
-0.2853392
-0.00032436311
-0.28498952
-0.00032436396
-0.28463984
-0.00032436311
-0.28429016
-0.00032436311
-0.28394048
-0.00032436311
-0.2835908
-0.00032436311
-0.28324112
-0.00032436397
-0.00032436311
-0.28603856
-0.00067404328
0.28638824
-0.28568888
-0.00067404414
-0.2853392
-0.00067404328
-0.28498952
-0.00067404328
-0.28463984
-0.00067404413
-0.28429016
-0.00067404328
-0.28394048
-0.00067404413
-0.2835908
-0.00067404328
-0.28324112
-0.00067404414
-0.00067404328
-0.28603856
-0.0010237243
0.28638824
-0.28568888
-0.0010237243
-0.2853392
-0.0010237234
-0.28498952
-0.0010237243
-0.28463984
-0.0010237243
-0.28429016
-0.0010237243
-0.28394048
-0.0010237234
-0.2835908
-0.0010237243
-0.28324112
-0.0010237243
-0.0010237243
-0.28603856
0.28638824
-0.28568888
-0.2853392
-0.28498952
-0.28463984
-0.28429016
-0.28394048
-0.2835908
-0.28324112
0.00093580153
0.28648904
-0.0010365989
0.00083500413
0.28648904
0.00073420673
0.28648904
0.00063340916
0.28648904
0.00053261159
0.28648904
0.00043181487
0.28648904
0.0003310173
0.28648904
0.00023021972
0.28648904
0.00012942301
0.28648904
2.8624577e-05
0.28648904
-7.2172994e-05
0.28648904
-0.00017297057
0.28648904
-0.00027376728
0.28648904
0.28648904
0.00093580153
0.28658984
-0.001036599
0.00083500413
0.28658984
0.00073420673
0.28658984
0.00063340916
0.28658984
0.00053261158
0.28658984
0.00043181401
0.28658984
0.00033101644
0.28658984
0.00023021972
0.28658984
0.00012942215
0.28658984
2.8625434e-05
0.28658984
-7.2172137e-05
0.28658984
-0.00017296971
0.28658984
-0.00027376728
0.28658984
0.28658984
0.00093580162
0.28669064
-0.0010365989
0.00083500413
0.28669064
0.00073420673
0.28669064
0.00063340916
0.28669064
0.00053261244
0.28669064
0.00043181487
0.28669064
0.0003310173
0.28669064
0.00023021887
0.28669064
0.00012942215
0.28669064
2.8624581e-05
0.28669064
-7.2172998e-05
0.28669064
-0.00017297057
0.28669064
-0.00027376729
0.28669064
0.28669064
0.00093580153
0.28679143
-0.0010365989
0.00083500413
0.28679143
0.00073420673
0.28679143
0.00063341001
0.28679143
0.00053261159
0.28679143
0.00043181401
0.28679143
0.0003310173
0.28679143
0.00023021972
0.28679143
0.00012942215
0.28679143
2.8624577e-05
0.28679143
-7.2172137e-05
0.28679143
-0.00017296971
0.28679143
-0.00027376728
0.28679143
0.28679143
0.00093580153
0.28689223
-0.0010365989
0.00083500413
0.28689223
0.00073420673
0.28689223
0.00063340916
0.28689223
0.00053261158
0.28689223
0.00043181487
0.28689223
0.0003310173
0.28689223
0.00023021972
0.28689223
0.00012942215
0.28689223
2.8624577e-05
0.28689223
-7.2172994e-05
0.28689223
-0.00017296971
0.28689223
-0.00027376814
0.28689223
0.28689223
0.00093580153
0.28699303
-0.001036599
0.00083500413
0.28699303
0.00073420673
0.28699303
0.00063340916
0.28699303
0.00053261244
0.28699303
0.00043181401
0.28699303
0.00033101644
0.28699303
0.00023021972
0.28699303
0.00012942215
0.28699303
2.8625434e-05
0.28699303
-7.2172137e-05
0.28699303
-0.00017297056
0.28699303
-0.00027376728
0.28699303
0.28699303
0.00093580153
0.28709383
-0.0010365989
0.00083500413
0.28709383
0.00073420673
0.28709383
0.00063340916
0.28709383
0.00053261159
0.28709383
0.00043181487
0.28709383
0.0003310173
0.28709383
0.00023021973
0.28709383
0.00012942215
0.28709383
2.8624581e-05
0.28709383
-7.2172998e-05
0.28709383
-0.00017296971
0.28709383
-0.00027376729
0.28709383
0.28709383
0.00093580153
0.28719462
-0.0010365989
0.00083500413
0.28719462
0.00073420673
0.28719462
0.00063340916
0.28719462
0.00053261159
0.28719462
0.00043181487
0.28719462
0.0003310173
0.28719462
0.00023021972
0.28719462
0.00012942215
0.28719462
2.8624577e-05
0.28719462
-7.2172994e-05
0.28719462
-0.00017296971
0.28719462
-0.00027376728
0.28719462
0.28719462
0.00093580153
0.28729542
-0.001036599
0.00083500413
0.28729542
0.00073420673
0.28729542
0.00063340916
0.28729542
0.00053261244
0.28729542
0.00043181401
0.28729542
0.00033101644
0.28729542
0.00023021972
0.28729542
0.00012942215
0.28729542
2.8625434e-05
0.28729542
-7.2172137e-05
0.28729542
-0.00017297057
0.28729542
-0.00027376728
0.28729542
0.28729542
0.00093580153
0.28739622
-0.0010365989
0.00083500413
0.28739622
0.00073420673
0.28739622
0.00063340916
0.28739622
0.00053261159
0.28739622
0.00043181487
0.28739622
0.0003310173
0.28739622
0.00023021972
0.28739622
0.00012942215
0.28739622
2.8624577e-05
0.28739622
-7.2172994e-05
0.28739622
-0.00017296971
0.28739622
-0.00027376814
0.28739622
0.28739622
0.00093580153
0.28749702
-0.0010365989
0.00083500413
0.28749702
0.00073420673
0.28749702
0.00063341001
0.28749702
0.00053261159
0.28749702
0.00043181401
0.28749702
0.0003310173
0.28749702
0.00023021972
0.28749702
0.00012942215
0.28749702
2.8624581e-05
0.28749702
-7.2172141e-05
0.28749702
-0.00017296971
0.28749702
-0.00027376728
0.28749702
0.28749702
0.00093580162
0.28759781
-0.0010365989
0.00083500413
0.28759781
0.00073420673
0.28759781
0.00063340916
0.28759781
0.00053261244
0.28759781
0.00043181487
0.28759781
0.0003310173
0.28759781
0.00023021887
0.28759781
0.00012942215
0.28759781
2.8624577e-05
0.28759781
-7.2172994e-05
0.28759781
-0.00017297057
0.28759781
-0.00027376729
0.28759781
0.28759781
0.00093580153
0.28769861
-0.001036599
0.00083500413
0.28769861
0.00073420673
0.28769861
0.00063340916
0.28769861
0.00053261159
0.28769861
0.00043181401
0.28769861
0.00033101644
0.28769861
0.00023021972
0.28769861
0.00012942215
0.28769861
2.8625434e-05
0.28769861
-7.2172137e-05
0.28769861
-0.00017296971
0.28769861
-0.00027376728
0.28769861
0.28769861
0.00093580153
0.28779941
-0.0010365989
0.00083500413
0.28779941
0.00073420673
0.28779941
0.00063340916
0.28779941
0.00053261159
0.28779941
0.00043181487
0.28779941
0.0003310173
0.28779941
0.00023021972
0.28779941
0.000129423
0.28779941
2.8624577e-05
0.28779941
-7.2172994e-05
0.28779941
-0.00017297056
0.28779941
-0.00027376728
0.00029340914
0.00028716639
0.00028092364
0.28780565
0.00027468089
0.28780565
0.00026843814
0.28780565
0.0002621954
0.28780565
0.00025595265
0.28780565
0.00024970991
0.28780565
0.00024346715
0.28780565
0.00023722441
0.28780565
0.00023098166
0.28780565
0.28780565
0.00022473891
0.00028092364
0.00027468089
0.28781189
0.00026843815
0.28781189
0.0002621954
0.28781189
0.00025595265
0.28781189
0.0002497099
0.28781189
0.00024346716
0.28781189
0.00023722441
0.28781189
0.00023098166
0.28781189
0.28781189
0.00022473892
0.00027468089
0.00026843814
0.0002621954
0.28781814
0.00025595265
0.28781814
0.0002497099
0.28781814
0.00024346716
0.28781814
0.00023722441
0.28781814
0.00023098166
0.28781814
0.28781814
0.00022473891
0.0002621954
0.00025595265
0.28782438
0.0002497099
0.28782438
0.00024346715
0.28782438
0.00023722441
0.28782438
0.00023098166
0.28782438
0.28782438
0.00022473892
0.00025595265
0.0002497099
0.00024346716
0.28783062
0.00023722441
0.28783062
0.00023098166
0.28783062
0.28783062
0.00022473891
0.00024346716
0.00023722441
0.28783686
0.00023098166
0.28783686
0.28783686
0.00022473892
0.00023722441
0.00023098166
0.28784311
0.28784311
0.00022473891
0.00023098166
0.28784935
0.00022473891
0.00022473892
-0.016074439
0.00083598443
-0.015981151
0.00085730233
-0.01589999
0.00087301871
-0.015824962
0.00088082606
-0.015751524
0.00087949127
-0.015677685
0.000870952
-0.015607957
0.00086200273
-0.015545143
0.00085321285
-0.015489562
0.00084538439
0.00083832366
-0.015436859
-0.017884508
0.0009484941
-0.017774274
0.00097044445
-0.017665818
0.00098546649
-0.017558087
0.00099189941
-0.017451005
0.00098905244
-0.017344853
0.00097898051
-0.017240083
0.00096810462
-0.017136755
0.0009564051
-0.017034509
0.00094406452
0.00093036629
-0.016933287
-0.018243243
0.00099059193
-0.018126734
0.0010131475
-0.018009167
0.0010283962
-0.017892203
0.0010349797
-0.017776603
0.0010325088
-0.017662331
0.0010230809
-0.017549079
0.0010126381
-0.017436829
0.0010010818
-0.017325562
0.00098853024
0.00097437068
-0.017216152
-0.018293623
0.00089899914
-0.018178988
0.00092014037
-0.018062969
0.00093441845
-0.01794636
0.00094061281
-0.01782998
0.00093840356
-0.017714452
0.00092978041
-0.017599872
0.00092023811
-0.017486337
0.0009097244
-0.017373912
0.00089840508
0.00088572047
-0.017262748
-0.018297217
0.00078757967
-0.018182608
0.000806638
-0.018066571
0.00081950904
-0.017949916
0.00082509649
-0.017833482
0.00082311578
-0.017717909
0.00081536063
-0.017603288
0.00080677649
-0.017489715
0.00079731318
-0.01737727
0.00078711479
0.00077567581
-0.017266091
-0.018297415
0.0006751566
-0.01818281
0.00069209953
-0.018066775
0.00070354207
-0.017950118
0.00070850952
-0.017833682
0.00070674945
-0.017718107
0.00069985668
-0.017603486
0.00069222709
-0.017489916
0.00068381634
-0.017377479
0.00067475214
0.00066458398
-0.017266313
-0.018297421
0.00056267138
-0.018182816
0.00057749638
-0.01806678
0.00058750871
-0.017950124
0.00059185524
-0.017833688
0.00059031524
-0.017718113
0.00058428402
-0.017603492
0.00057760831
-0.017489922
0.00057024878
-0.017377486
0.00056231775
0.00055342061
-0.01726632
-0.018297421
0.00045018415
-0.018182816
0.00046289142
-0.018066781
0.0004714734
-0.017950124
0.00047519898
-0.017833688
0.00047387901
-0.017718113
0.0004687094
-0.017603492
0.00046298727
-0.017489923
0.00045667924
-0.017377486
0.00044988116
0.00044225495
-0.01726632
-0.018297421
0.00033769705
-0.018182816
0.00034828639
-0.018066781
0.00035543794
-0.017950124
0.00035854273
-0.017833688
0.00035744264
-0.017718113
0.00035313471
-0.017603492
0.00034836624
-0.017489923
0.00034310955
-0.017377486
0.00033744441
0.00033108939
-0.01726632
-0.018297421
0.00022520977
-0.018182816
0.00023368136
-0.018066781
0.00023940258
-0.017950124
0.0002418864
-0.017833688
0.00024100634
-0.017718113
0.00023755993
-0.017603492
0.00023374521
-0.017489923
0.00022953986
-0.017377486
0.00022500783
0.00021992366
-0.01726632
-0.018297421
0.00011272267
-0.018182816
0.00011907625
-0.018066781
0.0001233672
-0.017950124
0.00012523008
-0.017833688
0.00012457005
-0.017718113
0.00012198524
-0.017603492
0.00011912418
-0.017489923
0.00011597017
-0.017377486
0.00011257108
0.0001087581
-0.01726632
-0.018297421
2.3547302e-07
-0.018182816
4.4711379e-06
-0.018066781
7.3319182e-06
-0.017950124
8.5736587e-06
-0.017833688
8.1337591e-06
-0.017718113
6.4105518e-06
-0.017603492
4.5031502e-06
-0.017489923
2.4004702e-06
-0.017377486
1.3442017e-07
-2.407629e-06
-0.01726632
-0.018297421
-0.00011225172
-0.018182816
-0.0001101338
-0.018066781
-0.00010870354
-0.017950124
-0.00010808258
-0.017833688
-0.00010830262
-0.017718113
-0.00010916422
-0.017603492
-0.00011011788
-0.017489923
-0.00011116922
-0.017377486
-0.00011230225
-0.00011357318
-0.01726632
-0.018297421
-0.018182816
-0.018066781
-0.017950124
-0.017833688
-0.017718113
-0.017603492
-0.017489923
-0.017377486
-0.01726632
-0.015491199
0.0015411111
-0.015542614
0.0014849184
-0.015574589
0.0014139224
-0.015608339
0.0013530894
-0.015655698
0.0013028172
-0.015711825
0.0012489985
-0.015758801
0.0011811191
-0.015783792
0.0011057749
-0.015799399
0.0010442103
-0.015817825
0.00099995374
-0.015843058
0.00096687238
-0.015870675
0.0009364305
-0.015907774
0.00091337601
0.00089234669
-0.015954036
-0.016899226
0.0018006275
-0.01686518
0.0017337076
-0.016832872
0.0016548909
-0.016805486
0.0015871464
-0.016782084
0.0015290074
-0.016761516
0.0014666611
-0.016742979
0.001390888
-0.016726554
0.0013091211
-0.016712838
0.0012423355
-0.016702401
0.0011935503
-0.016695564
0.0011563703
-0.01669131
0.0011220534
-0.016688702
0.0010948211
0.0010683601
-0.016687347
-0.017136199
0.0019634636
-0.017063535
0.0018889293
-0.016997434
0.001805488
-0.016937388
0.0017328885
-0.01688272
0.0016691822
-0.016833848
0.0016011434
-0.016791732
0.0015208511
-0.01675666
0.001436366
-0.016727342
0.0013675796
-0.016702431
0.0013167884
-0.016681081
0.0012773235
-0.016662949
0.0012405856
-0.016647501
0.00120985
0.0011786514
-0.016634824
-0.01717577
0.0019108811
-0.017095805
0.0018397726
-0.017023624
0.0017615333
-0.016958233
0.0016933813
-0.016898823
0.0016333749
-0.016845773
0.0015693958
-0.016800164
0.0014944019
-0.016762345
0.0014159645
-0.016730874
0.0013522312
-0.016704105
0.0013051242
-0.016681002
0.0012684162
-0.016661314
0.0012341928
-0.016644512
0.0012053344
0.0011758498
-0.016630664
-0.017178535
0.0018248104
-0.017098114
0.0017606741
-0.017025522
0.0016901575
-0.016959753
0.0016287261
-0.016899991
0.0015746287
-0.016846634
0.0015169572
-0.016800781
0.0014493819
-0.016762775
0.0013787238
-0.016731146
0.001321315
-0.016704231
0.0012788789
-0.01668099
0.0012458047
-0.016661175
0.0012149637
-0.016644251
0.0011889405
0.0011623407
-0.016630282
-0.017178725
0.0017373105
-0.017098264
0.0016802908
-0.01702564
0.0016176022
-0.016959842
0.00156299
-0.016900055
0.0015148968
-0.016846677
0.0014636274
-0.016800808
0.0014035553
-0.01676279
0.0013407443
-0.016731151
0.0012897115
-0.016704227
0.0012519881
-0.016680979
0.0012225866
-0.016661158
0.0011951696
-0.016644228
0.0011720344
0.0011483856
-0.016630255
-0.017178731
0.001649724
-0.017098269
0.0015998313
-0.017025643
0.0015449786
-0.016959844
0.0014971927
-0.016900057
0.0014551109
-0.016846678
0.00141025
-0.016800808
0.0013576867
-0.01676279
0.0013027271
-0.016731151
0.0012580733
-0.016704227
0.0012250652
-0.016680979
0.0011993388
-0.016661157
0.0011753489
-0.016644228
0.0011551054
0.0011344126
-0.016630254
-0.017178731
0.0015621348
-0.017098269
0.0015193695
-0.017025644
0.001472353
-0.016959844
0.0014313935
-0.016900057
0.0013953236
-0.016846678
0.0013568712
-0.016800809
0.0013118171
-0.01676279
0.0012647088
-0.016731151
0.0012264341
-0.016704227
0.0011981416
-0.016680979
0.0011760902
-0.016661157
0.0011555275
-0.016644228
0.001138176
0.0011204392
-0.016630254
-0.017178731
0.0014745454
-0.017098269
0.0014389078
-0.017025643
0.0013997273
-0.016959844
0.0013655945
-0.016900057
0.0013355361
-0.016846678
0.0013034925
-0.016800809
0.0012659474
-0.01676279
0.0012266905
-0.016731151
0.001194795
-0.016704227
0.0011712178
-0.016680979
0.0011528417
-0.016661157
0.0011357061
-0.016644228
0.0011212464
0.0011064658
-0.016630254
-0.017178731
0.0013869562
-0.017098269
0.001358446
-0.017025644
0.0013271016
-0.016959844
0.0012997955
-0.016900057
0.0012757487
-0.016846678
0.0012501139
-0.016800809
0.0012200777
-0.01676279
0.0011886722
-0.016731151
0.0011631558
-0.016704227
0.001144294
-0.016680979
0.0011295931
-0.016661157
0.0011158847
-0.016644228
0.001104317
0.0010924924
-0.016630254
-0.017178731
0.0012993668
-0.017098269
0.0012779843
-0.017025644
0.001254476
-0.016959844
0.0012339963
-0.016900057
0.0012159613
-0.016846678
0.0011967351
-0.016800809
0.001174208
-0.01676279
0.0011506539
-0.016731151
0.0011315165
-0.016704227
0.0011173702
-0.016680979
0.0011063446
-0.016661157
0.0010960632
-0.016644228
0.0010873874
0.0010785191
-0.016630254
-0.017178731
0.0012117776
-0.017098269
0.0011975225
-0.017025644
0.0011818503
-0.016959844
0.0011681972
-0.016900057
0.0011561738
-0.016846678
0.0011433564
-0.016800809
0.0011283384
-0.01676279
0.0011126356
-0.016731151
0.0010998773
-0.016704227
0.0010904464
-0.016680979
0.0010830961
-0.016661157
0.0010762418
-0.016644228
0.0010704579
0.0010645457
-0.016630254
-0.017178731
0.0011241882
-0.017098269
0.0011170607
-0.017025644
0.0011092246
-0.016959844
0.0011023981
-0.016900057
0.0010963864
-0.016846678
0.0010899776
-0.016800809
0.0010824686
-0.01676279
0.0010746173
-0.016731151
0.0010682382
-0.016704227
0.0010635227
-0.016680979
0.0010598474
-0.016661157
0.0010564204
-0.016644228
0.0010535284
0.0010505723
-0.016630254
-0.017178731
-0.017098269
-0.017025644
-0.016959844
-0.016900057
-0.016846678
-0.016800809
-0.01676279
-0.016731151
-0.016704227
-0.016680979
-0.016661157
-0.016644228
-0.016630254
-0.0032059385
0.018146696
-0.002889756
0.018146696
-0.0025735735
0.018146696
-0.002257391
0.018146696
-0.0019412084
0.018146696
-0.0016250258
0.018146696
-0.0013088433
0.018146696
-0.00099266081
0.018146696
-0.00067648031
0.018146696
-0.0003605345
0.018146696
0.018146637
-0.0032292429
0.017853818
-0.0029363647
0.017853818
-0.0026434864
0.017853818
-0.0023506082
0.017853818
-0.00205773
0.017853818
-0.0017648518
0.017853818
-0.0014719736
0.017853818
-0.0011790955
0.017853818
-0.00088622094
0.017853818
-0.00059357907
0.017853818
-0.00030366516
0.017853784
-9.0753035e-05
0.01785586
0.00011967868
0.017848439
0.018058276
-0.0032555928
0.01758729
-0.0029890646
0.01758729
-0.0027225363
0.01758729
-0.002456008
0.01758729
-0.0021894798
0.01758729
-0.0019229515
0.01758729
-0.0016564232
0.01758729
-0.001389895
0.01758729
-0.0011233694
0.01758729
-0.00085699414
0.01758729
-0.00059169935
0.017587273
-0.00036516919
0.017587939
-0.00014294816
0.01758755
0.017701278
-0.0032856767
0.017350845
-0.0030492322
0.017350845
-0.0028127878
0.017350845
-0.0025763435
0.017350845
-0.002339899
0.017350845
-0.0021034546
0.017350845
-0.0018670102
0.017350845
-0.0016305657
0.017350845
-0.0013941246
0.017350845
-0.0011577291
0.017350845
-0.00092154219
0.017350873
-0.00068516021
0.017351477
-0.0004278439
0.017357979
0.017362723
-0.0033205996
0.017149324
-0.0031190781
0.017149324
-0.0029175567
0.017149324
-0.0027160352
0.017149324
-0.0025145136
0.017149324
-0.0023129922
0.017149324
-0.0021114707
0.017149324
-0.0019099493
0.017149324
-0.0017084278
0.017149324
-0.0015068593
0.017149326
-0.0013030619
0.017149397
-0.0010494656
0.017149946
-0.00075321376
0.017164763
0.017036625
-0.0033582949
0.016985498
-0.0031944689
0.016985498
-0.0030306427
0.016985498
-0.0028668166
0.016985498
-0.0027029904
0.016985498
-0.0025391643
0.016985498
-0.0023753382
0.016985498
-0.002211512
0.016985498
-0.0020476828
0.016985498
-0.0018837027
0.016985502
-0.0017140249
0.016985618
-0.0014368195
0.016986098
-0.0010967922
0.017010122
0.016727833
-0.0033946975
0.016858074
-0.0032672739
0.016858074
-0.0031398503
0.016858074
-0.0030124267
0.016858074
-0.0028850031
0.016858074
-0.0027575795
0.016858074
-0.002630156
0.016858074
-0.0025027322
0.016858074
-0.0023753012
0.016858074
-0.0022475536
0.016858082
-0.0021094486
0.016858252
-0.0018050659
0.016859003
-0.0014197954
0.016890819
0.016454559
-0.0034239493
0.016759902
-0.0033257775
0.016759902
-0.0032276057
0.016759902
-0.0031294339
0.016759902
-0.0030312622
0.016759902
-0.0029330904
0.016759902
-0.0028349185
0.016759902
-0.0027367465
0.016759902
-0.0026385608
0.016759903
-0.0025398636
0.016759915
-0.0024253601
0.016760133
-0.0020927689
0.016761624
-0.0016681526
0.016799906
0.016239426
-0.0034465657
0.016684347
-0.0033710103
0.016684347
-0.003295455
0.016684347
-0.0032198995
0.016684347
-0.0031443441
0.016684347
-0.0030687888
0.016684347
-0.0029932334
0.016684347
-0.0029176776
0.016684347
-0.0028421016
0.016684347
-0.0027658409
0.016684365
-0.0026688876
0.016684643
-0.002316504
0.016687243
-0.0018596715
0.016732366
0.016084733
-0.0034680285
-0.0034139359
-0.0033598433
-0.0033057508
-0.0032516582
-0.0031975656
-0.0031434731
-0.00308938
-0.0030352604
-0.002980305
-0.002900024
-0.0025329794
-0.0020457211
-0.00361742
0.018107414
-0.0034136727
0.018107414
-0.0032099255
0.018107414
-0.0030061783
0.018107414
-0.002802431
0.018107414
-0.0025986837
0.018107414
-0.0023949364
0.018107414
-0.0021911893
0.018107414
-0.00198744
0.018107414
-0.0017835983
0.018107415
-0.0015762509
0.018107449
-0.0012881468
0.018107477
-0.00095072527
0.018115934
0.017866377
-0.0036331454
0.017919392
-0.0034451237
0.017919392
-0.0032571018
0.017919392
-0.0030690801
0.017919392
-0.0028810583
0.017919392
-0.0026930365
0.017919392
-0.0025050147
0.017919392
-0.0023169928
0.017919392
-0.0021289678
0.017919392
-0.0019408005
0.017919394
-0.0017475785
0.017919446
-0.0014498809
0.017919567
-0.0010939706
0.017931593
0.01762211
-0.0036490073
0.017747232
-0.0034768473
0.017747232
-0.0033046873
0.017747232
-0.0031325273
0.017747232
-0.0029603673
0.017747232
-0.0027882073
0.017747232
-0.0026160473
0.017747232
-0.0024438872
0.017747232
-0.0022717223
0.017747232
-0.0020993577
0.017747235
-0.0019201214
0.01774731
-0.0016127174
0.017747596
-0.0012377072
0.017763927
0.017395078
-0.0036651568
0.017591221
-0.0035091462
0.017591221
-0.0033531358
0.017591221
-0.0031971253
0.017591221
-0.0030411148
0.017591221
-0.0028851043
0.017591221
-0.0027290939
0.017591221
-0.0025730833
0.017591221
-0.0024170659
0.017591221
-0.0022607827
0.017591226
-0.002095552
0.017591328
-0.0017781712
0.017591877
-0.0013831091
0.017613273
0.017185019
-0.0036819648
0.017452019
-0.0035427622
0.017452019
-0.0034035598
0.017452019
-0.0032643573
0.017452019
-0.0031251548
0.017452019
-0.0029859522
0.017452019
-0.0028467497
0.017452019
-0.0027075471
0.017452019
-0.0025683352
0.017452019
-0.0024287821
0.017452026
-0.0022779056
0.017452161
-0.0019499878
0.017453096
-0.0015337452
0.017480332
0.016991145
-0.0036997675
0.017330619
-0.0035783678
0.017330619
-0.003456968