/*--------------------------------*- C++ -*----------------------------------*\
| =========                 |                                                 |
| \\      /  F ield         | OpenFOAM: The Open Source CFD Toolbox           |
|  \\    /   O peration     | Version:  2206                                  |
|   \\  /    A nd           | Website:  www.openfoam.com                      |
|    \\/     M anipulation  |                                                 |
\*---------------------------------------------------------------------------*/
FoamFile
{
    version     2.0;
    format      ascii;
    arch        "LSB;label=32;scalar=64";
    class       volScalarField;
    location    "0.02";
    object      T;
}
// * * * * * * * * * * * * * * * * * * * * * * * * * * * * * * * * * * * * * //

dimensions      [0 0 0 1 0 0 0];

internalField   nonuniform List<scalar> 
1396
(
1
1
1
1
1
1
1
1
1
1
1
1
1
1
1
1
1
1
1
1
1
1
1
1
1
1
1
1
1
1
1
1
1
1
1
1
1
1
1
1
1
1
1
1
1
1
1
1
1
1
1
1
1
1
1
1
1
1
1
1
1
1
1
1
1
1
1
1
1
1
1
1
1
1
1
1
1
1
1
1
1
1
1
1
1
1
1
1
1
1
1
1
1
1
1
1
1
1
1
1
1
1
1
1
1
1
1
1
1
1
1
1
1
1
1
1
1
1
1
1
1
1
1
1
1
1
1
1
1
1
1
1
1
1
1
1
1
1
1
1
1
1
1
1
1
1
1
1
1
1
1
1
1
1
1
1
1
1
1
1
1
1
1
1
1
1
1
1
1
1
1
1
1
1
1
1
1
1
1
1
1
1
1
1
1
1
1
1
1
1
1
1
1
1
1
1
1
1
1
1
1
1
1
1
1
1
1
1
1
1
1
1
1
1
1
1
1
1
1
1
1
1
1
1
1
1
1
1
1
1
1
1
1
1
1
1
1
1
1
1
1
1
1
1
1
1
1
1
1
1
1
1
1
1
1
1
1
1
1
1
1
1
1
1
1
1
1
1
1
1
1
1
1
1
1
1
1
1
1
1
1
1
1
1
1
1
1
1
1
1
1
1
1
1
1
1
1
1
1
1
1
1
1
1
1
1
1
1
1
1
1
1
1
1
1
1
1
1
1
1
1
1
1
1
1
1
1
1
1
1
1
1
1
1
1
1
1
1
1
1
1
1
1
1
1
1
1
1
1
1
1
1
1
1
1
1
1
1
1
1
1
1
1
1
1
1
1
1
1
1
1
1
1
1
1
1
1
1
1
1
1
1
1
1
1
1
1
1
1
1
1
1
1
1
1
1
1
1
1
1
1
1
1
1
1
1
1
1
1
1
1
1
1
1
1
1
1
1
1
1
1
1
1
1
1
1
1
1
1
1
1
1
1
1
1
1
1
1
1
1
1
1
1
1
1
1
1
1
1
1
1
1
1
1
1
1
1
1
1
1
1
1
1
1
1
1
1
1
1
1
1
1
1
1
1
1
1
1
1
1
1
1
1
1
1
1
1
1
1
1
1
1
1
1
1
1
1
1
1
1
1
1
1
1
1
1
1
1
1
1
1
1
1
1
1
1
1
1
1
1
1
1
1
1
1
1
1
1
1
1
1
1
1
1
1
1
1
1
1
1
1
1
1
1
1
1
1
1
1
1
1
1
1
1
1
1
1
1
1
1
1
1
1
1
1
1
1
1
1
1
1
1
1
1
1
1
1
1
1
1
1
1
1
1
1
1
1
1
1
1
1
1
1
1
1
1
1
1
1
1
1
1
1
1
1
1
1
1
1
1
1
1
1
1
1
1
1
1
1
1
1
1
1
1
1
1
1
1
1
1
1
1
1
1
1
0.9476488
0.94718684
0.94687057
0.94675515
0.94682608
0.94709762
0.94756927
0.94821404
0.94910084
0.95029156
0.99047324
0.99029161
0.99020511
0.99019268
0.99022792
0.99029459
0.99037603
0.99046042
0.99054375
0.990638
0.99880795
0.99876818
0.99873841
0.99871993
0.99871329
0.99871433
0.99871697
0.99872103
0.99872906
0.99874377
0.99990559
0.99990153
0.99989868
0.99989696
0.99989614
0.99989575
0.99989539
0.99989481
0.99989387
0.99989301
0.99999627
0.99999609
0.99999596
0.99999588
0.99999584
0.99999581
0.99999577
0.9999957
0.9999956
0.99999548
0.99999986
0.99999986
0.99999985
0.99999985
0.99999984
0.99999984
0.99999984
0.99999983
0.99999983
0.99999982
1
1
1
1
1
1
1
1
1
1
1
1
1
1
1
1
1
1
1
1
1
1
1
1
1
1
1
1
1
1
1
1
1
1
1
1
1
1
1
1
1
1
1
1
1
1
1
1
1
1
1
1
1
1
1
1
1
1
1
1
1
1
1
1
1
1
1
1
1
1
1
1
1
1
1
1
1
1
1
1
0.95156942
0.95356354
0.95575114
0.95793966
0.96014992
0.96235726
0.96444479
0.96629305
0.96788635
0.96922462
0.97040446
0.97156712
0.97296046
0.97471849
0.99083192
0.99149064
0.99214861
0.99275751
0.99333948
0.99391593
0.99446814
0.99494705
0.9953207
0.9956146
0.99586319
0.99609697
0.99634087
0.99662038
0.99876729
0.99887805
0.99896289
0.9990396
0.99911258
0.99918596
0.99925655
0.99931671
0.99936285
0.99939936
0.99943099
0.99946201
0.99949776
0.99954411
0.99989459
0.99990606
0.99991521
0.99992316
0.99993072
0.99993822
0.99994518
0.99995084
0.99995502
0.99995825
0.99996108
0.99996392
0.99996735
0.99997223
0.99999553
0.99999614
0.99999657
0.99999695
0.9999973
0.99999764
0.99999794
0.99999818
0.99999835
0.99999848
0.9999986
0.99999872
0.99999888
0.99999911
0.99999983
0.99999986
0.99999987
0.99999989
0.9999999
0.99999992
0.99999993
0.99999994
0.99999994
0.99999995
0.99999995
0.99999996
0.99999996
0.99999997
1
1
1
1
1
1
1
1
1
1
1
1
1
1
1
1
1
1
1
1
1
1
1
1
1
1
1
1
1
1
1
1
1
1
1
1
1
1
1
1
1
1
1
1
1
1
1
1
1
1
1
1
1
1
1
1
1
1
1
1
1
1
1
1
1
1
1
1
1
1
1
1
1
1
1
1
1
1
1
1
1
1
1
1
1
1
1
1
1
1
1
1
1
1
1
1
1
1
1
1
1
1
1
1
1
1
1
1
1
1
1
1
1
1
1
1
1
1
1
1
1
1.0000001
1.0000022
1
1
1
1
1
1
1
1
1
1.0000001
1.0000025
1.0001089
1.0002432
1.0063826
1
1
1
1
1
1
1
1
1
1
1.000001
1.0000483
1.0001288
1.0033629
1
1
1
1
1
1
1
1
1
1
1.0000002
1.0000029
0.99993842
0.99981605
1
1
1
1
1
1
1
1
1
0.99999997
0.99999846
0.99994803
0.99958691
0.99568661
1
1
1
1
1
1
1
1
1
0.99999991
0.99999571
0.99987763
0.9991172
0.99110418
1
1
1
1
1
1
1
1
1
0.99999981
0.9999918
0.99979597
0.9985273
0.98648175
1
1
1
1
1
1
1
1
0.99999999
0.99999968
0.99998712
0.99971821
0.99795662
0.98226707
1
1
1
1
1
1
1
1
0.99999999
0.99999956
0.99998287
0.99965605
0.99744578
0.97903954
1
1
1
1
1
1
1
1
0.99999999
0.99999943
0.99997876
0.99959845
0.99697955
0.97609756
1
1
1
1
1
1
1
1
1
0.99999995
0.99999764
0.99992357
0.99942812
0.99285563
1
1
1
1
1
1
1
1
1
0.99999993
0.99999648
0.99989586
0.99923352
0.99089872
1
1
1
1
1
1
1
1
1
0.9999999
0.99999509
0.99986638
0.99901838
0.98897525
1
1
1
1
1
1
1
1
1
0.99999986
0.99999346
0.99983464
0.99877815
0.98701933
1
1
1
1
1
1
1
1
1
0.99999981
0.99999155
0.99980008
0.99850801
0.9849944
1
1
1
1
1
1
1
1
0.99999999
0.99999975
0.99998932
0.99976215
0.99820249
0.98287026
1
1
1
1
1
1
1
1
0.99999999
0.99999967
0.99998671
0.99972082
0.99785879
0.98064068
1
1
1
1
1
1
1
1
0.99999999
0.99999959
0.99998379
0.99967635
0.99747262
0.97831406
1
1
1
1
1
1
1
1
0.99999999
0.99999949
0.99998033
0.99962613
0.99701732
0.97578591
1
1
1
1
1
1
1
1
0.99999999
0.99999935
0.99997587
0.99956915
0.99651859
0.97289612
1
1
1
1
1
1
1
1
1
1
1
1
1
1
1
1
1
1
1
1
1
1
1
1
1
1
1
1
1
1
1
1
1
1
1
1
1
1
1
1
1
1
1
1
1
1
1
1
1
1
1
1
1
1
1
1
1
1
1
1
1
1
1
1
1
1
1
1
1
1
1
1
0.99999992
0.99999993
0.99999993
0.99999994
0.99999994
0.99999995
0.99999995
0.99999996
0.99999996
0.99999997
0.99999998
0.99999745
0.99999757
0.99999769
0.99999783
0.99999797
0.99999812
0.99999827
0.99999843
0.99999858
0.99999873
0.99999889
0.99999908
0.9999293
0.99993209
0.99993515
0.9999385
0.99994209
0.99994573
0.99994957
0.99995344
0.99995736
0.99996126
0.99996522
0.99996983
0.99903363
0.99906131
0.99909244
0.99912665
0.99916411
0.9992045
0.99924561
0.9992894
0.9993339
0.9993793
0.99942501
0.99947144
0.99952042
0.99166289
0.99187173
0.99211978
0.99239809
0.99270087
0.99302784
0.99337944
0.99373771
0.9941134
0.99449691
0.99488779
0.9952791
0.99566905
0.99606928
0.95296265
0.95379929
0.95474099
0.95579872
0.95696617
0.95824807
0.9595982
0.96105886
0.96257819
0.9641867
0.96585084
0.96754158
0.96927506
0.97118243
)
;

boundaryField
{
    Side
    {
        type            empty;
    }
    Inlet
    {
        type            inletOutlet;
        inletValue      uniform 1;
        value           nonuniform List<scalar> 
42
(
1
1
1
1
1
1
1
1
1
1
1
1
1
1
1
1
1
1
1
1
1
1
1
1
1
1
1
1
1
1
1
1
1
1
1
1
1
1
1
1
1
1
)
;
    }
    Airfoil
    {
        type            fixedValue;
        value           uniform 1;
    }
    Outlet
    {
        type            zeroGradient;
    }
    Flap
    {
        type            fixedValue;
        value           nonuniform List<scalar> 0();
    }
    procBoundary1to0
    {
        type            processor;
        value           nonuniform List<scalar> 
58
(
1
1
1
1
1
1
1
1
1
1
1
1
1
1
1
1
1
1
1
1
1
1
1
1
1
1
1
1
1
1
1
1
1
1
1
1
1
1
1.0000001
1.0000022
1.0001272
1.0001272
1.000381
1.008994
1
1
1
1
1
1
1
1
1
0.99999997
0.99999856
0.99994925
0.99960825
0.99481143
)
;
    }
    procBoundary1to2
    {
        type            processor;
        value           nonuniform List<scalar> 
73
(
1
1
1
1
1
1
1
1
1
1
1
1
1
1
0.99145802
0.9523233
1
1
1
1
1
1
1
1
1
1
1
1
1
1
1
1
1
1
1
1
1
1
1
1
0.94825245
0.99073113
0.99885441
0.99991052
0.9999965
0.99999987
1
1
1
1
1
1
1
1
1
1
1
1
1
1
1
1
1
1
1
1
0.99999992
0.99999992
0.99999735
0.99992683
0.99992683
0.99901082
0.99901082
)
;
    }
}


// ************************************************************************* //
