/*--------------------------------*- C++ -*----------------------------------*\
| =========                 |                                                 |
| \\      /  F ield         | OpenFOAM: The Open Source CFD Toolbox           |
|  \\    /   O peration     | Version:  2206                                  |
|   \\  /    A nd           | Website:  www.openfoam.com                      |
|    \\/     M anipulation  |                                                 |
\*---------------------------------------------------------------------------*/
FoamFile
{
    version     2.0;
    format      ascii;
    arch        "LSB;label=32;scalar=64";
    class       volVectorField;
    location    "0.02";
    object      U;
}
// * * * * * * * * * * * * * * * * * * * * * * * * * * * * * * * * * * * * * //

dimensions      [0 1 -1 0 0 0 0];

internalField   nonuniform List<vector> 
1396
(
(0.85671779 0.043699275 0)
(0.85671779 0.043699275 0)
(0.85671779 0.043699275 0)
(0.85671779 0.043699275 0)
(0.85671779 0.043699275 0)
(0.85671779 0.043699275 0)
(0.85671779 0.043699275 0)
(0.85671779 0.043699275 0)
(0.85671779 0.043699275 0)
(0.85671779 0.043699275 0)
(0.85671779 0.043699275 -2.6640061e-24)
(0.85671779 0.043699275 2.6640047e-24)
(0.85671779 0.043699275 -5.3280064e-24)
(0.85671779 0.043699275 5.3280035e-24)
(0.85671779 0.043699275 0)
(0.85671779 0.043699275 5.3279976e-24)
(0.85671779 0.043699275 -5.3279947e-24)
(0.85671779 0.043699275 0)
(0.85671779 0.043699275 0)
(0.85671779 0.043699275 0)
(0.85671779 0.043699275 1.0655966e-23)
(0.85671779 0.043699275 6.6559037e-25)
(0.85671779 0.043699275 -6.6559001e-25)
(0.85671779 0.043699275 0)
(0.85671779 0.043699275 0)
(0.85671779 0.043699275 5.3247113e-24)
(0.85671779 0.043699275 -5.3247084e-24)
(0.85671779 0.043699275 0)
(0.85671779 0.043699275 0)
(0.85671779 0.043699275 0)
(0.85671779 0.043699275 -1.0649393e-23)
(0.85671779 0.043699275 1.0649387e-23)
(0.85671779 0.043699275 0)
(0.85671779 0.043699275 0)
(0.85671779 0.043699275 -1.064937e-23)
(0.85671779 0.043699275 0)
(0.85671779 0.043699275 0)
(0.85671779 0.043699275 0)
(0.85671779 0.043699275 0)
(0.85671779 0.043699275 0)
(0.85671779 0.043699275 0)
(0.85671779 0.043699275 0)
(0.85671779 0.043699275 5.3214086e-24)
(0.85671779 0.043699275 -5.3214056e-24)
(0.85671779 0.043699275 0)
(0.85671779 0.043699275 0)
(0.85671779 0.043699275 0)
(0.85671779 0.043699275 -1.0642788e-23)
(0.85671779 0.043699275 2.1285564e-23)
(0.85671779 0.043699275 0)
(0.85671779 0.043699275 0)
(0.85671779 0.043699275 0)
(0.85671779 0.043699275 -2.6590652e-24)
(0.85671779 0.043699275 2.6590637e-24)
(0.85671779 0.043699275 0)
(0.85671779 0.043699275 0)
(0.85671779 0.043699275 0)
(0.85671779 0.043699275 5.3181158e-24)
(0.85671779 0.043699275 -5.3181129e-24)
(0.85671779 0.043699275 0)
(0.85671779 0.043699275 0)
(0.85671779 0.043699275 0)
(0.85671779 0.043699275 1.0636202e-23)
(0.85671779 0.043699275 6.6435666e-25)
(0.85671779 0.043699275 -1.9930689e-24)
(0.85671779 0.043699275 1.3287119e-24)
(0.85671779 0.043699275 0)
(0.85671779 0.043699275 5.3148416e-24)
(0.85671779 0.043699275 -5.3148387e-24)
(0.85671779 0.043699275 0)
(0.85671779 0.043699275 0)
(0.85671779 0.043699275 0)
(0.85671779 0.043699275 -1.0629654e-23)
(0.85671779 0.043699275 1.0629648e-23)
(0.85671779 0.043699275 0)
(0.85671779 0.043699275 0)
(0.85671779 0.043699275 -1.0629631e-23)
(0.85671779 0.043699275 0)
(0.85671779 0.043699275 0)
(0.85671779 0.043699275 0)
(0.85671779 0.043699275 0)
(0.85671779 0.043699275 0)
(0.85671779 0.043699275 0)
(0.85671779 0.043699275 0)
(0.85671779 0.043699275 5.3115511e-24)
(0.85671779 0.043699275 -1.5373487e-36)
(0.85671779 0.043699275 -5.3115453e-24)
(0.85671779 0.043699275 0)
(0.85671779 0.043699275 0)
(0.85671779 0.043699275 0)
(0.85671779 0.043699275 1.0623067e-23)
(0.85671779 0.043699275 0)
(0.85671779 0.043699275 0)
(0.85671779 0.043699275 0)
(0.85671779 0.043699275 -2.6541425e-24)
(0.85671779 0.043699275 7.9624233e-24)
(0.85671779 0.043699275 -5.3082793e-24)
(0.85671779 0.043699275 0)
(0.85671779 0.043699275 0)
(0.85671779 0.043699275 5.3082705e-24)
(0.85671779 0.043699275 -5.3082676e-24)
(0.85671779 0.043699275 0)
(0.85671779 0.043699275 0)
(0.85671779 0.043699275 -1.0616518e-23)
(0.85671779 0.043699275 1.0616512e-23)
(0.85671779 0.043699275 0)
(0.85671779 0.043699275 0)
(0.85671779 0.043699275 0)
(0.85671779 0.043699275 0)
(0.85671779 0.043699275 0)
(0.85671779 0.043699275 0)
(0.85671779 0.043699275 0)
(0.85671779 0.043699275 5.3049998e-24)
(0.85671779 0.043699275 -5.3049969e-24)
(0.85671779 0.043699275 0)
(0.85671779 0.043699275 0)
(0.85671779 0.043699275 0)
(0.85671779 0.043699275 0)
(0.85671779 0.043699275 1.0609965e-23)
(0.85671779 0.043699275 6.6271881e-25)
(0.85671779 0.043699275 -6.6271845e-25)
(0.85671779 0.043699275 0)
(0.85671779 0.043699275 0)
(0.85671779 0.043699275 5.3017389e-24)
(0.85671779 0.043699275 -5.301736e-24)
(0.85671779 0.043699275 0)
(0.85671779 0.043699275 0)
(0.85671779 0.043699275 0)
(0.85671779 0.043699275 0)
(0.85671779 0.043699275 0)
(0.85671779 0.043699275 0)
(0.85671779 0.043699275 0)
(0.85671779 0.043699275 -1.0603426e-23)
(0.85671779 0.043699275 -6.6231061e-25)
(0.85671779 0.043699275 1.9869307e-24)
(0.85671779 0.043699275 -1.3246198e-24)
(0.85671779 0.043699275 0)
(0.85671779 0.043699275 5.2984733e-24)
(0.85671779 0.043699275 -5.2984704e-24)
(0.85671779 0.043699275 -5.2984675e-24)
(0.85671779 0.043699275 1.0596929e-23)
(0.85671779 0.043699275 -5.2984617e-24)
(0.85671779 0.043699275 0)
(0.85671779 0.043699275 0)
(0.85671779 0.043699275 0)
(0.85671779 0.043699275 1.05969e-23)
(0.85671779 0.043699275 -1.0596894e-23)
(0.85671779 0.043699275 0)
(0.85671779 0.043699275 1.3226297e-24)
(0.85671779 0.043699275 -1.3226283e-24)
(0.85671779 0.043699275 0)
(0.85671779 0.043699275 5.2905017e-24)
(0.85671779 0.043699275 -5.2904959e-24)
(0.85671779 0.043699275 0)
(0.85671779 0.043699275 0)
(0.85671779 0.043699275 -5.2904785e-24)
(0.85671779 0.043699275 5.2904728e-24)
(0.85671779 0.043699275 0)
(0.85671779 0.043699275 0)
(0.85671779 0.043699275 0)
(0.85671779 0.043699275 1.0580899e-23)
(0.85671779 0.043699275 0)
(0.85671779 0.043699275 -1.3218161e-24)
(0.85671779 0.043699275 1.3218146e-24)
(0.85671779 0.043699275 -2.6436264e-24)
(0.85671779 0.043699275 -2.6436235e-24)
(0.85671779 0.043699275 5.2872412e-24)
(0.85671779 0.043699275 5.2872354e-24)
(0.85671779 0.043699275 -1.0574459e-23)
(0.85671779 0.043699275 5.2872239e-24)
(0.85671779 0.043699275 0)
(0.85671779 0.043699275 0)
(0.85671779 0.043699275 0)
(0.85671779 0.043699275 0)
(0.85671779 0.043699275 0)
(0.85671779 0.043699275 -6.6050242e-25)
(0.85671779 0.043699275 1.9815051e-24)
(0.85671779 0.043699275 -1.321002e-24)
(0.85671779 0.043699275 0)
(0.85671779 0.043699275 0)
(0.85671779 0.043699275 0)
(0.85671779 0.043699275 0)
(0.85671779 0.043699275 0)
(0.85671779 0.043699275 0)
(0.85671779 0.043699275 1.0567935e-23)
(0.85671779 0.043699275 -1.0567923e-23)
(0.85671779 0.043699275 0)
(0.85671779 0.043699275 -1.05679e-23)
(0.85671779 0.043699275 1.0567889e-23)
(0.85671779 0.043699275 -6.6009658e-25)
(0.85671779 0.043699275 -6.6009586e-25)
(0.85671779 0.043699275 -1.3201903e-24)
(0.85671779 0.043699275 5.2807554e-24)
(0.85671779 0.043699275 -2.6403748e-24)
(0.85671779 0.043699275 0)
(0.85671779 0.043699275 0)
(0.85671779 0.043699275 0)
(0.85671779 0.043699275 -5.2807266e-24)
(0.85671779 0.043699275 -5.2807208e-24)
(0.85671779 0.043699275 1.056143e-23)
(0.85671779 0.043699275 0)
(0.85671779 0.043699275 -1.0561407e-23)
(0.85671779 0.043699275 1.0561396e-23)
(0.85671779 0.043699275 -6.5969124e-25)
(0.85671779 0.043699275 1.9790716e-24)
(0.85671779 0.043699275 -1.3193796e-24)
(0.85671779 0.043699275 -2.6387564e-24)
(0.85671779 0.043699275 7.9162604e-24)
(0.85671779 0.043699275 -5.2775012e-24)
(0.85671779 0.043699275 -5.2774955e-24)
(0.85671779 0.043699275 1.0554979e-23)
(0.85671779 0.043699275 -5.277484e-24)
(0.85671779 0.043699275 0)
(0.85671779 0.043699275 0)
(0.85671779 0.043699275 0)
(0.85671779 0.043699275 -1.0554922e-23)
(0.85671779 0.043699275 1.055491e-23)
(0.85671779 0.043699275 0)
(0.85671779 0.043699275 -1.3185714e-24)
(0.85671779 0.043699275 1.3185699e-24)
(0.85671779 0.043699275 0)
(0.85671779 0.043699275 5.2742683e-24)
(0.85671779 0.043699275 -5.2742625e-24)
(0.85671779 0.043699275 0)
(0.85671779 0.043699275 0)
(0.85671779 0.043699275 0)
(0.85671779 0.043699275 1.0548479e-23)
(0.85671779 0.043699275 -1.0548468e-23)
(0.85671779 0.043699275 0)
(0.85671779 0.043699275 0)
(0.85671779 0.043699275 0)
(0.85671779 0.043699275 -6.5888206e-25)
(0.85671779 0.043699275 1.976644e-24)
(0.85671779 0.043699275 -1.3177613e-24)
(0.85671779 0.043699275 -2.6355196e-24)
(0.85671779 0.043699275 7.9065503e-24)
(0.85671779 0.043699275 -5.2710278e-24)
(0.85671779 0.043699275 -5.2710221e-24)
(0.85671779 0.043699275 5.2710163e-24)
(0.85671779 0.043699275 0)
(0.85671779 0.043699275 1.054201e-23)
(0.85671779 0.043699275 -1.0541998e-23)
(0.85671779 0.043699275 0)
(0.85671779 0.043699275 -1.0541975e-23)
(0.85671779 0.043699275 1.0541964e-23)
(0.85671779 0.043699275 2.1019035e-23)
(0.85671779 0.043699275 -2.1044746e-23)
(0.85671779 0.043699275 2.107052e-23)
(0.85671779 0.043699275 -2.1096358e-23)
(0.85671779 0.043699275 0)
(0.85671779 0.043699275 0)
(0.85671779 0.043699275 0)
(0.85671779 0.043699275 0)
(0.85671779 0.043699275 2.12265e-23)
(0.85671779 0.043699275 0)
(0.85671779 0.043699275 -2.1019058e-23)
(0.85671779 0.043699275 2.1044769e-23)
(0.85671779 0.043699275 2.1070543e-23)
(0.85671779 0.043699275 0)
(0.85671779 0.043699275 0)
(0.85671779 0.043699275 2.1148246e-23)
(0.85671779 0.043699275 0)
(0.85671779 0.043699275 0)
(0.85671779 0.043699275 0)
(0.85671779 0.043699275 0)
(0.85671779 0.043699275 0)
(0.85671779 0.043699275 0)
(0.85671779 0.043699275 -2.1070566e-23)
(0.85671779 0.043699275 -2.1096404e-23)
(0.85671779 0.043699275 0)
(0.85671779 0.043699275 -2.1148269e-23)
(0.85671779 0.043699275 -2.1174297e-23)
(0.85671779 0.043699275 0)
(0.85671779 0.043699275 -2.1226547e-23)
(0.85671779 0.043699275 0)
(0.85671779 0.043699275 0)
(0.85671779 0.043699275 0)
(0.85671779 0.043699275 2.1070589e-23)
(0.85671779 0.043699275 4.2192853e-23)
(0.85671779 0.043699275 -2.1122327e-23)
(0.85671779 0.043699275 0)
(0.85671779 0.043699275 4.2348641e-23)
(0.85671779 0.043699275 -2.1200413e-23)
(0.85671779 0.043699275 4.245314e-23)
(0.85671779 0.043699275 2.1252792e-23)
(0.85671779 0.043699275 1.0509563e-23)
(0.85671779 0.043699275 0)
(0.85671779 0.043699275 -2.1070612e-23)
(0.85671779 0.043699275 -2.109645e-23)
(0.85671779 0.043699275 3.1683526e-23)
(0.85671779 0.043699275 0)
(0.85671779 0.043699275 -1.0587172e-23)
(0.85671779 0.043699275 2.1200436e-23)
(0.85671779 0.043699275 -2.1226593e-23)
(0.85671779 0.043699275 -2.1252815e-23)
(0.85671779 0.043699275 -1.0509575e-23)
(0.85671779 0.043699275 0)
(0.85671779 0.043699275 0)
(0.85671779 0.043699275 -1.0548236e-23)
(0.85671779 0.043699275 -2.1122374e-23)
(0.85671779 0.043699275 0)
(0.85671779 0.043699275 -1.0587183e-23)
(0.85671779 0.043699275 -1.060023e-23)
(0.85671779 0.043699275 0)
(0.85671779 0.043699275 0)
(0.85671779 0.043699275 0)
(0.85671779 0.043699275 0)
(0.85671779 0.043699275 0)
(0.85671779 0.043699275 1.0548248e-23)
(0.85671779 0.043699275 1.0561198e-23)
(0.85671779 0.043699275 0)
(0.85671779 0.043699275 0)
(0.85671779 0.043699275 1.0600241e-23)
(0.85671779 0.043699275 0)
(0.85671779 0.043699275 0)
(0.85671779 0.043699275 0)
(0.85671779 0.043699275 0)
(0.85671779 0.043699275 0)
(0.85671779 0.043699275 0)
(0.85671779 0.043699275 0)
(0.85671779 0.043699275 -1.0574192e-23)
(0.85671779 0.043699275 0)
(0.85671779 0.043699275 0)
(0.85671779 0.043699275 1.0613332e-23)
(0.85671779 0.043699275 0)
(0.85671779 0.043699275 -1.0509609e-23)
(0.85671779 0.043699275 1.0522465e-23)
(0.85671779 0.043699275 0)
(0.85671779 0.043699275 0)
(0.85671779 0.043699275 0)
(0.85671779 0.043699275 1.0574204e-23)
(0.85671779 0.043699275 0)
(0.85671779 0.043699275 0)
(0.85671779 0.043699275 -1.0613343e-23)
(0.85671779 0.043699275 0)
(0.85671779 0.043699275 5.2548101e-24)
(0.85671779 0.043699275 -1.0522476e-23)
(0.85671779 0.043699275 -5.2676817e-24)
(0.85671779 0.043699275 0)
(0.85671779 0.043699275 -5.2806164e-24)
(0.85671779 0.043699275 0)
(0.85671779 0.043699275 0)
(0.85671779 0.043699275 -5.3001381e-24)
(0.85671779 0.043699275 0)
(0.85671779 0.043699275 0)
(0.85671779 0.043699275 5.2548105e-24)
(0.85671779 0.043699275 0)
(0.85671779 0.043699275 5.2676821e-24)
(0.85671779 0.043699275 0)
(0.85671779 0.043699275 5.2806168e-24)
(0.85671779 0.043699275 5.287108e-24)
(0.85671779 0.043699275 0)
(0.85671779 0.043699275 5.3001385e-24)
(0.85671779 0.043699275 0)
(0.85671779 0.043699275 -5.3132333e-24)
(0.85671779 0.043699275 2.6274026e-24)
(0.85671779 0.043699275 0)
(0.85671779 0.043699275 0)
(0.85671779 0.043699275 0)
(0.85671779 0.043699275 0)
(0.85671779 0.043699275 -2.6435513e-24)
(0.85671779 0.043699275 0)
(0.85671779 0.043699275 0)
(0.85671779 0.043699275 0)
(0.85671779 0.043699275 5.3132279e-24)
(0.85671779 0.043699275 -3.9410996e-24)
(0.85671779 0.043699275 0)
(0.85671779 0.043699275 0)
(0.85671779 0.043699275 0)
(0.85671779 0.043699275 0)
(0.85671779 0.043699275 -2.6435485e-24)
(0.85671779 0.043699275 0)
(0.85671779 0.043699275 0)
(0.85671779 0.043699275 0)
(0.85671779 0.043699275 0)
(0.85671779 0.043699275 1.3136985e-24)
(0.85671779 0.043699275 0)
(0.85671779 0.043699275 0)
(0.85671779 0.043699275 0)
(0.85671779 0.043699275 0)
(0.85671779 0.043699275 0)
(0.85671779 0.043699275 0)
(0.85671779 0.043699275 0)
(0.85671779 0.043699275 0)
(0.85671779 0.043699275 0)
(0.85671779 0.043699275 4.6215567e-24)
(0.85671779 0.043699275 0)
(0.85671779 0.043699275 0)
(0.85671779 0.043699275 -6.1338018e-23)
(0.85671779 0.043699275 0)
(0.85671779 0.043699275 -5.5077857e-23)
(0.85671779 0.043699275 0)
(0.85671779 0.043699275 -4.9977184e-23)
(0.85671779 0.043699275 0)
(0.85671779 0.043699275 0)
(0.85671779 0.043699275 0)
(0.85671779 0.043699275 -4.2166993e-23)
(0.85671779 0.043699275 0)
(0.85671779 0.043699275 -3.9110832e-23)
(0.85671779 0.043699275 4.6188409e-24)
(0.85671779 0.043699275 1.3833133e-22)
(0.85671779 0.043699275 0)
(0.85671779 0.043699275 6.1308117e-23)
(0.85671779 0.043699275 0)
(0.85671779 0.043699275 5.5053748e-23)
(0.85671779 0.043699275 0)
(0.85671779 0.043699275 4.9957333e-23)
(0.85671779 0.043699275 0)
(0.85671779 0.043699275 0)
(0.85671779 0.043699275 -1.3708171e-24)
(0.85671779 0.043699275 4.4128778e-23)
(0.85671779 0.043699275 -6.3388073e-25)
(0.85671779 0.043699275 3.9098675e-23)
(0.85671779 0.043699275 4.6161292e-24)
(0.85671779 0.043699275 -4.1476597e-22)
(0.85671779 0.043699275 2.5986689e-22)
(0.85671779 0.043699275 -3.829891e-24)
(0.85671779 0.043699275 3.6241319e-24)
(0.85671779 0.043699275 0)
(0.85671779 0.043699275 2.0616778e-22)
(0.85671779 0.043699275 3.121094e-24)
(0.85671779 0.043699275 1.9091678e-22)
(0.85671779 0.043699275 -1.4283727e-24)
(0.85671779 0.043699275 1.3703392e-24)
(0.85671779 0.043699275 0)
(0.85671779 0.043699275 0)
(0.85671779 0.043699275 0)
(0.85671779 0.043699275 0)
(0.85671779 0.043699275 1.6623502e-34)
(0.85671779 0.043699275 -2.5567444e-22)
(0.85671779 0.043699275 -1.9719828e-37)
(0.85671779 0.043699275 -7.2449244e-24)
(0.85671779 0.043699275 2.2346027e-22)
(0.85671779 0.043699275 -2.1262429e-22)
(0.85671779 0.043699275 3.1198555e-24)
(0.85671779 0.043699275 -1.9233535e-22)
(0.85671779 0.043699275 1.4278539e-24)
(0.85671779 0.043699275 -1.3698617e-24)
(0.85671779 0.043699275 1.3163948e-24)
(0.85671779 0.043699275 3.1673608e-25)
(0.85671779 0.043699275 -3.0526865e-25)
(0.85671779 0.043699275 -5.8556086e-22)
(0.85671779 0.043699275 -2.7189137e-22)
(0.85671779 0.043699275 -4.0562308e-24)
(0.85671779 0.043699275 0)
(0.85671779 0.043699275 0)
(0.85671779 0.043699275 -2.1992626e-22)
(0.85671779 0.043699275 0)
(0.85671779 0.043699275 0)
(0.85671779 0.043699275 3.8154405e-22)
(0.85671779 0.043699275 0)
(0.85671779 0.043699275 0)
(0.85671779 0.043699275 0)
(0.85671779 0.043699275 0)
(0.85671779 0.043699275 0)
(0.85671779 0.043699275 5.898257e-22)
(0.85671779 0.043699275 5.5211117e-22)
(0.85671779 0.043699275 0)
(0.85671779 0.043699275 0)
(0.85671779 0.043699275 0)
(0.85671779 0.043699275 -4.3966038e-22)
(0.85671779 0.043699275 4.1835819e-22)
(0.85671779 0.043699275 0)
(0.85671779 0.043699275 -3.8139946e-22)
(0.85671779 0.043699275 0)
(0.85671779 0.043699275 0)
(0.85671779 0.043699275 -3.3677154e-22)
(0.85671779 0.043699275 0)
(0.85671779 0.043699275 0)
(0.85671779 0.043699275 4.6053143e-24)
(0.85671779 0.043699275 0)
(0.85671779 0.043699275 0)
(0.85671779 0.043699275 0)
(0.85671779 0.043699275 4.6303518e-22)
(0.85671779 0.043699275 8.789368e-22)
(0.85671779 0.043699275 -4.2145142e-22)
(0.85671779 0.043699275 -3.9263442e-22)
(0.85671779 0.043699275 -3.8572281e-22)
(0.85671779 0.043699275 2.8525997e-24)
(0.85671779 0.043699275 -3.5168684e-22)
(0.85671779 0.043699275 -2.3248273e-34)
(0.85671779 0.043699275 -3.2402448e-22)
(0.85671779 0.043699275 -3.1230409e-22)
(0.85671779 0.043699275 4.6026185e-24)
(0.85671779 0.043699275 -5.5150607e-22)
(0.85671779 0.043699275 0)
(0.85671779 0.043699275 0)
(0.85671779 0.043699275 -4.6643805e-22)
(0.85671779 0.043699275 -4.3584474e-22)
(0.85671779 0.043699275 -3.2657084e-24)
(0.85671779 0.043699275 4.0182361e-22)
(0.85671779 0.043699275 3.796219e-22)
(0.85671779 0.043699275 1.4257825e-24)
(0.85671779 0.043699275 3.5019651e-22)
(0.85671779 0.043699275 3.365463e-22)
(0.85671779 0.043699275 3.239202e-22)
(0.85671779 0.043699275 3.1220721e-22)
(0.85671779 0.043699275 4.5999259e-24)
(0.85671779 0.043699275 5.5120402e-22)
(0.85671779 0.043699275 0)
(0.85671779 0.043699275 4.8879751e-22)
(0.85671779 0.043699275 -4.5899538e-22)
(0.85671779 0.043699275 -3.4303511e-24)
(0.85671779 0.043699275 -3.2643525e-24)
(0.85671779 0.043699275 3.1136781e-24)
(0.85671779 0.043699275 -1.4881498e-24)
(0.85671779 0.043699275 1.4252656e-24)
(0.85671779 0.043699275 -1.3674793e-24)
(0.85671779 0.043699275 6.5709727e-25)
(0.85671779 0.043699275 6.3245308e-25)
(0.85671779 0.043699275 3.1211039e-22)
(0.85671779 0.043699275 4.5972364e-24)
(0.85671779 0.043699275 1.0975007e-21)
(0.85671779 0.043699275 -1.0316778e-21)
(0.85671779 0.043699275 -4.8856022e-22)
(0.85671779 0.043699275 -4.5878449e-22)
(0.85671779 0.043699275 -8.8121577e-22)
(0.85671779 0.043699275 -3.2629979e-24)
(0.85671779 0.043699275 3.1124456e-24)
(0.85671779 0.043699275 1.4875867e-24)
(0.85671779 0.043699275 -1.4247491e-24)
(0.85671779 0.043699275 0)
(0.85671779 0.043699275 0)
(0.85671779 0.043699275 0)
(0.85671779 0.043699275 3.1201363e-22)
(0.85671779 0.043699275 1.1762048e-21)
(0.85671779 0.043699275 2.2935594e-34)
(0.85671779 0.043699275 2.7146295e-34)
(0.85671779 0.043699275 3.8150247e-24)
(0.85671779 0.043699275 9.2075843e-22)
(0.85671779 0.043699275 1.7548086e-21)
(0.85671779 0.043699275 8.3171929e-22)
(0.85671779 0.043699275 3.1112141e-24)
(0.85671779 0.043699275 -7.6284332e-22)
(0.85671779 0.043699275 2.848466e-24)
(0.85671779 0.043699275 -1.3665286e-24)
(0.85671779 0.043699275 -6.7241804e-22)
(0.85671779 0.043699275 -6.4721547e-22)
(0.85671779 0.043699275 -1.6602188e-33)
(0.85671779 0.043699275 -1.1755179e-21)
(0.85671779 0.043699275 -1.1005997e-21)
(0.85671779 0.043699275 1.0346588e-21)
(0.85671779 0.043699275 -9.761727e-22)
(0.85671779 0.043699275 3.6091599e-24)
(0.85671779 0.043699275 -8.8044786e-22)
(0.85671779 0.043699275 -1.6725297e-21)
(0.85671779 0.043699275 3.1099835e-24)
(0.85671779 0.043699275 1.5221369e-21)
(0.85671779 0.043699275 0)
(0.85671779 0.043699275 6.9941955e-22)
(0.85671779 0.043699275 1.3437306e-21)
(0.85671779 0.043699275 6.4763928e-22)
(0.85671779 0.043699275 -6.2364058e-22)
(0.85671779 0.043699275 4.5891866e-24)
(0.85671779 0.043699275 -1.0999982e-21)
(0.85671779 0.043699275 -1.0341272e-21)
(0.85671779 0.043699275 9.7569952e-22)
(0.85671779 0.043699275 0)
(0.85671779 0.043699275 0)
(0.85671779 0.043699275 8.3428878e-22)
(0.85671779 0.043699275 -7.9584098e-22)
(0.85671779 0.043699275 -1.5230474e-21)
(0.85671779 0.043699275 1.4232018e-24)
(0.85671779 0.043699275 -1.3983532e-21)
(0.85671779 0.043699275 -6.7196909e-22)
(0.85671779 0.043699275 0)
(0.85671779 0.043699275 -6.2344743e-22)
(0.85671779 0.043699275 4.5865098e-24)
(0.85671779 0.043699275 1.0993975e-21)
(0.85671779 0.043699275 1.0335962e-21)
(0.85671779 0.043699275 -3.8094797e-24)
(0.85671779 0.043699275 3.6058497e-24)
(0.85671779 0.043699275 -8.7625841e-22)
(0.85671779 0.043699275 -3.2575903e-24)
(0.85671779 0.043699275 7.9863397e-22)
(0.85671779 0.043699275 1.5209867e-21)
(0.85671779 0.043699275 0)
(0.85671779 0.043699275 6.9893382e-22)
(0.85671779 0.043699275 0)
(0.85671779 0.043699275 -6.4659176e-22)
(0.85671779 0.043699275 6.2325438e-22)
(0.85671779 0.043699275 7.7253479e-22)
(0.85671779 0.043699275 0)
(0.85671779 0.043699275 8.0634699e-22)
(0.85671779 0.043699275 -8.2438783e-22)
(0.85671779 0.043699275 0)
(0.85671779 0.043699275 8.6300478e-22)
(0.85671779 0.043699275 8.8370249e-22)
(0.85671779 0.043699275 0)
(0.85671779 0.043699275 0)
(0.85671779 0.043699275 0)
(0.85671779 0.043699275 0)
(0.85671779 0.043699275 1.0041122e-21)
(0.85671779 0.043699275 -8.063469e-22)
(0.85671779 0.043699275 0)
(0.85671779 0.043699275 0)
(0.85671779 0.043699275 -8.6300468e-22)
(0.85671779 0.043699275 0)
(0.85671779 0.043699275 0)
(0.85671779 0.043699275 0)
(0.85671779 0.043699275 9.5221417e-22)
(0.85671779 0.043699275 9.7747475e-22)
(0.85671779 0.043699275 -1.0041121e-21)
(0.85671779 0.043699275 -8.2438767e-22)
(0.85671779 0.043699275 0)
(0.85671779 0.043699275 0)
(0.85671779 0.043699275 0)
(0.85671779 0.043699275 0)
(0.85671779 0.043699275 0)
(0.85671779 0.043699275 6.4381651e-34)
(0.85671779 0.043699275 -1.9549493e-21)
(0.85671779 0.043699275 0)
(0.85671779 0.043699275 0)
(0.85671779 0.043699275 0)
(0.85671779 0.043699275 -9.0541712e-22)
(0.85671779 0.043699275 0)
(0.85671779 0.043699275 -9.8781953e-34)
(0.85671779 0.043699275 4.4982151e-34)
(0.85671779 0.043699275 0)
(0.85671779 0.043699275 0)
(0.85671779 0.043699275 9.0541704e-22)
(0.85671779 0.043699275 0)
(0.85671779 0.043699275 -1.9044277e-21)
(0.85671779 0.043699275 1.9549488e-21)
(0.85671779 0.043699275 0)
(0.85671779 0.043699275 0)
(0.85671779 0.043699275 9.5221375e-22)
(0.85671779 0.043699275 -2.6566051e-34)
(0.85671779 0.043699275 0)
(0.85671779 0.043699275 9.5221364e-22)
(0.85671779 0.043699275 -9.774742e-22)
(0.85671779 0.043699275 0)
(0.85671779 0.043699275 0)
(0.85671779 0.043699275 1.0041114e-21)
(0.85671779 0.043699275 -2.0082226e-21)
(0.83303053 0.095533968 -1.0563189e-22)
(0.83485177 0.096565045 -5.3128862e-23)
(0.83703221 0.097288358 8.2633301e-26)
(0.83900346 0.097703515 -5.3850785e-23)
(0.84050355 0.097866094 1.0837823e-22)
(0.84161859 0.097844545 1.0897203e-22)
(0.84264495 0.097670478 0)
(0.84387 0.09730323 0)
(0.84538608 0.096657476 2.3026827e-22)
(0.84717314 0.095651015 3.432038e-22)
(0.83988622 0.095131552 -2.7818887e-23)
(0.83983236 0.096014637 0)
(0.83996193 0.096626791 0)
(0.84015531 0.096972758 0)
(0.84037094 0.097110949 0)
(0.84059069 0.097111104 1.1549734e-22)
(0.84082266 0.097004429 0)
(0.84107624 0.096771119 0)
(0.84136455 0.096376501 7.7797665e-24)
(0.84174038 0.095771418 -3.4394458e-22)
(0.85471347 0.051068972 0)
(0.85461325 0.051295232 0)
(0.85449626 0.051425627 0)
(0.85441612 0.051483407 -1.7323191e-22)
(0.85440057 0.051492312 5.8046758e-23)
(0.8544323 0.051477053 6.746092e-25)
(0.85446655 0.051461656 -1.173398e-22)
(0.85450472 0.05146195 -1.179553e-22)
(0.85454133 0.051500775 1.1856659e-22)
(0.85456256 0.051586673 -1.1917316e-22)
(0.85657573 0.04419355 -2.8525635e-23)
(0.85657284 0.044209784 5.7463979e-23)
(0.85657201 0.044221454 -1.7359249e-22)
(0.85657249 0.044228908 2.3284055e-22)
(0.85657343 0.0442334 0)
(0.85657392 0.044236733 1.1780915e-22)
(0.85657368 0.044239288 0)
(0.85657315 0.04423968 1.7861351e-22)
(0.85657316 0.044235488 -2.3940448e-22)
(0.85657485 0.044224171 1.8048938e-22)
(0.85670883 0.043734692 0)
(0.85670842 0.043736309 5.7932389e-23)
(0.85670818 0.043737474 1.1665292e-22)
(0.85670805 0.043738248 -1.1740604e-22)
(0.85670801 0.043738753 0)
(0.85670797 0.043739157 -1.7815616e-22)
(0.85670787 0.043739608 1.1943337e-22)
(0.85670766 0.043740165 -1.8012408e-22)
(0.85670723 0.043740761 0)
(0.85670656 0.043740981 6.0692492e-23)
(0.85671754 0.043700352 0)
(0.85671753 0.043700404 0)
(0.85671752 0.043700442 -1.1760495e-22)
(0.85671752 0.043700468 6.0549466e-30)
(0.85671751 0.043700487 1.1908092e-22)
(0.85671751 0.043700507 5.9879162e-23)
(0.8567175 0.04370053 0)
(0.85671749 0.043700557 -1.2110513e-22)
(0.85671748 0.043700585 1.2177365e-22)
(0.85671746 0.043700594 -6.1217515e-23)
(0.85671778 0.043699313 -8.770872e-23)
(0.85671778 0.043699315 1.177636e-22)
(0.85671778 0.043699316 5.9281902e-23)
(0.85671778 0.043699317 -5.966609e-23)
(0.85671778 0.043699318 -6.0030331e-23)
(0.85671778 0.043699319 1.207565e-22)
(0.85671778 0.04369932 -6.0725197e-23)
(0.85671778 0.043699322 -6.1070748e-23)
(0.85671778 0.043699324 6.1415127e-23)
(0.85671778 0.043699323 6.1756399e-23)
(0.85671779 0.043699276 5.8960384e-23)
(0.85671779 0.043699276 -5.9368159e-23)
(0.85671779 0.043699276 5.9769143e-23)
(0.85671779 0.043699276 -6.0157158e-23)
(0.85671779 0.043699276 -6.0528337e-23)
(0.85671779 0.043699276 1.826567e-22)
(0.85671779 0.043699276 -6.1242214e-23)
(0.85671779 0.043699276 -1.8479359e-22)
(0.85671779 0.043699276 1.85858e-22)
(0.85671779 0.043699276 1.869146e-22)
(0.85671779 0.043699275 5.9456499e-23)
(0.85671779 0.043699275 -1.7958786e-22)
(0.85671779 0.043699275 3.0132227e-23)
(0.85671779 0.043699275 0)
(0.85671779 0.043699275 0)
(0.85671779 0.043699275 -1.2280295e-22)
(0.85671779 0.043699275 1.2353622e-22)
(0.85671779 0.043699275 0)
(0.85671779 0.043699275 9.3749551e-23)
(0.85671779 0.043699275 -1.8858947e-22)
(0.85671779 0.043699275 -2.9980517e-23)
(0.85671779 0.043699275 0)
(0.85671779 0.043699275 9.1152064e-23)
(0.85671779 0.043699275 -3.0581968e-23)
(0.85671779 0.043699275 0)
(0.85671779 0.043699275 1.2385241e-22)
(0.85671779 0.043699275 -1.4913129e-35)
(0.85671779 0.043699275 -1.2535975e-22)
(0.85671779 0.043699275 3.152824e-23)
(0.85671779 0.043699275 3.171577e-23)
(0.85671779 0.043699275 9.8024188e-37)
(0.85671779 0.043699275 9.1315006e-23)
(0.85671779 0.043699275 -6.1280118e-23)
(0.85671779 0.043699275 -6.168007e-23)
(0.85671779 0.043699275 0)
(0.85671779 0.043699275 -3.122999e-23)
(0.85671779 0.043699275 3.1423736e-23)
(0.85671779 0.043699275 0)
(0.85671779 0.043699275 0)
(0.85671779 0.043699275 -1.6002574e-22)
(0.85671779 0.043699275 -1.5249059e-23)
(0.85671779 0.043699275 -7.6745862e-23)
(0.85671779 0.043699275 1.5450224e-23)
(0.85671779 0.043699275 9.3307482e-23)
(0.85671779 0.043699275 -7.8257252e-23)
(0.85671779 0.043699275 9.4504553e-23)
(0.85671779 0.043699275 -3.1700712e-23)
(0.85671779 0.043699275 0)
(0.85671779 0.043699275 -1.2840068e-22)
(0.85671779 0.043699275 2.4224874e-22)
(0.85671779 0.043699275 7.6906687e-24)
(0.85671779 0.043699275 -8.5145053e-23)
(0.85671779 0.043699275 5.4537534e-23)
(0.85671779 0.043699275 -6.2736908e-23)
(0.85671779 0.043699275 7.8932004e-23)
(0.85671779 0.043699275 0)
(0.85671779 0.043699275 1.279262e-22)
(0.85671779 0.043699275 -1.2874784e-22)
(0.85671779 0.043699275 0)
(0.85671779 0.043699275 8.1497193e-24)
(0.85671779 0.043699275 -5.4303969e-23)
(0.85671779 0.043699275 1.3272256e-22)
(0.85671779 0.043699275 -7.0721153e-23)
(0.85671779 0.043699275 6.3275799e-23)
(0.85671779 0.043699275 -6.3692564e-23)
(0.85671779 0.043699275 0)
(0.85671779 0.043699275 -1.2906513e-22)
(0.85671779 0.043699275 1.2991079e-22)
(0.85671779 0.043699275 0)
(0.85671779 0.043699275 8.2256e-24)
(0.84913494 0.094243542 -7.4387584e-23)
(0.85161957 0.092010707 -1.2991991e-22)
(0.85232166 0.089811056 0)
(0.85297134 0.087789143 -1.3104713e-22)
(0.85412339 0.085819347 2.6745752e-22)
(0.85534332 0.083725842 -1.3764378e-22)
(0.85579508 0.081498461 -1.3018299e-22)
(0.85524902 0.079353668 0)
(0.85438561 0.077551725 3.8531902e-22)
(0.85390591 0.076130476 1.3799723e-22)
(0.85392176 0.074969751 -5.191448e-22)
(0.85432574 0.073926027 1.3540092e-22)
(0.8550825 0.072875635 6.5061278e-22)
(0.85582159 0.071541683 -3.8883839e-22)
(0.84250345 0.094848728 2.036672e-22)
(0.8442348 0.092544515 -1.4154388e-22)
(0.84520119 0.090239699 1.410644e-22)
(0.84623029 0.08808634 -4.2324131e-22)
(0.84725846 0.085941219 5.7041131e-22)
(0.84825408 0.083669306 -2.8822113e-22)
(0.84910954 0.081354757 0)
(0.84974542 0.079263339 5.5956209e-22)
(0.85017688 0.07756859 -4.2472749e-22)
(0.85048594 0.076196132 -2.7354077e-22)
(0.85082421 0.074992265 0)
(0.85121939 0.073816203 -2.7305508e-22)
(0.85166116 0.072523459 1.3912824e-22)
(0.8521008 0.070943251 -1.1088036e-21)
(0.85457344 0.051664184 7.4618402e-23)
(0.85488904 0.050894387 2.0488277e-26)
(0.85508324 0.050318813 -2.9728173e-22)
(0.85527317 0.049803433 -7.6921013e-25)
(0.85544542 0.049299188 -5.9096322e-22)
(0.85561088 0.048783095 2.9440009e-22)
(0.85576217 0.048291922 0)
(0.8558839 0.047884849 1.469622e-22)
(0.85596871 0.047581346 0)
(0.85602678 0.047343505 7.3122868e-22)
(0.85608571 0.047135045 -5.8420383e-22)
(0.85614917 0.046930246 1.4541247e-22)
(0.85621536 0.046705802 -1.4516058e-22)
(0.85627964 0.04643348 -1.1620592e-21)
(0.85657634 0.044205832 3.1345773e-22)
(0.85659795 0.044164014 -1.563334e-22)
(0.8566087 0.044131541 1.5574805e-22)
(0.85662033 0.044101237 -9.8850894e-26)
(0.85663168 0.044071707 3.1008629e-22)
(0.85664238 0.044042003 4.6410143e-22)
(0.85665117 0.04401397 0)
(0.85665746 0.043990477 8.347693e-26)
(0.856662 0.043972296 1.5370562e-22)
(0.85666602 0.043957515 0)
(0.85667009 0.04394414 0)
(0.85667474 0.043930383 -1.5278823e-22)
(0.85668045 0.043913661 0)
(0.8566866 0.04389199 -1.5217776e-22)
(0.85670571 0.043740015 -8.2341199e-23)
(0.85670772 0.043735309 1.6421489e-22)
(0.85670891 0.043731899 -1.6372993e-22)
(0.85671004 0.043728833 -1.6329654e-22)
(0.85671108 0.043725864 -1.6291618e-22)
(0.85671206 0.043722929 0)
(0.8567129 0.043720273 6.4862413e-22)
(0.85671353 0.043718168 -8.0889422e-22)
(0.85671397 0.043716624 -3.2285385e-22)
(0.85671433 0.043715396 0)
(0.85671466 0.043714269 -6.4299078e-22)