/*--------------------------------*- C++ -*----------------------------------*\
| =========                 |                                                 |
| \\      /  F ield         | OpenFOAM: The Open Source CFD Toolbox           |
|  \\    /   O peration     | Version:  2206                                  |
|   \\  /    A nd           | Website:  www.openfoam.com                      |
|    \\/     M anipulation  |                                                 |
\*---------------------------------------------------------------------------*/
FoamFile
{
    version     2.0;
    format      ascii;
    arch        "LSB;label=32;scalar=64";
    class       volScalarField;
    location    "0";
    object      k_0;
}
// * * * * * * * * * * * * * * * * * * * * * * * * * * * * * * * * * * * * * //

dimensions      [0 2 -2 0 0 0 0];

internalField   nonuniform List<scalar> 
19794
(
0.62327725
0.61841475
0.6144337
0.61199864
0.6102705
0.60915634
0.60840321
0.60788018
0.60749346
0.60719635
0.60696665
0.60678921
0.60665134
0.60654225
0.60645317
0.60637756
0.60631098
0.60625081
0.60619569
0.60614496
0.60609849
0.60605637
0.60601857
0.6059849
0.60595493
0.6059281
0.60590379
0.60588088
0.60585884
0.60583825
0.60582021
0.60580759
0.60580475
0.60581853
0.60585797
0.60593448
0.60606197
0.60625676
0.60653768
0.60692618
0.60744288
0.6081077
0.60894545
0.60999073
0.61128666
0.61291772
0.61495202
0.61684476
0.62146334
0.64554298
0.63740055
0.6294207
0.62400831
0.62016364
0.61751546
0.61553375
0.61402392
0.61288261
0.61202735
0.61137033
0.61084609
0.61041602
0.61005417
0.60974268
0.60946925
0.6092255
0.60900584
0.60880648
0.60862502
0.60846002
0.60831039
0.60817522
0.60805368
0.60794482
0.60784747
0.60776046
0.60768072
0.60760533
0.6075333
0.60746472
0.60740198
0.60735163
0.60732479
0.60733776
0.60741333
0.60758192
0.60788294
0.60836818
0.60910714
0.61019266
0.61174118
0.61390059
0.61685148
0.6207971
0.62583734
0.63234178
0.63684177
0.63664145
0.67137944
0.65420143
0.64370183
0.63600681
0.63058773
0.62666108
0.62366398
0.6212998
0.6194364
0.61798977
0.61683451
0.61586807
0.61503692
0.61430892
0.61366398
0.61308834
0.61257238
0.61210894
0.61169202
0.61131713
0.6109808
0.61068008
0.61041231
0.61017487
0.60996513
0.60978029
0.60961807
0.60947331
0.60934061
0.60921816
0.60910474
0.60900211
0.60891629
0.60885654
0.60883655
0.60887515
0.60899693
0.60923428
0.60963075
0.61024725
0.61117701
0.61255029
0.61453975
0.61738424
0.62140703
0.62703773
0.63515506
0.6452645
0.6622409
0.68299281
0.66687012
0.65641269
0.64778207
0.6413256
0.6362028
0.63216218
0.62893433
0.62635751
0.62429943
0.62260632
0.62116079
0.61989892
0.6187816
0.61778432
0.61689038
0.61608826
0.61536842
0.61472309
0.61414644
0.61363369
0.61318038
0.6127822
0.61243484
0.61213365
0.61187402
0.61165188
0.61146079
0.61129451
0.61115043
0.61102667
0.61092437
0.61084751
0.61080268
0.61079999
0.61085308
0.61098081
0.61121004
0.61158035
0.61215165
0.61302122
0.61432859
0.61625449
0.61904829
0.62300525
0.62857796
0.63653465
0.64672313
0.662604
0.69195944
0.67509416
0.66552459
0.65740592
0.65088237
0.64511492
0.64024756
0.63619369
0.63288715
0.63019295
0.62795575
0.62605648
0.62441716
0.62298312
0.62171657
0.62059092
0.61958684
0.61868912
0.61788707
0.61717278
0.61653953
0.61598121
0.61549239
0.61506803
0.61470288
0.61439129
0.61412823
0.61390728
0.61372116
0.6135669
0.61344302
0.61334907
0.61328748
0.61326397
0.61328716
0.61336951
0.61352941
0.6137939
0.61420358
0.61481999
0.61573667
0.61708761
0.61904227
0.6218306
0.62570648
0.63098991
0.63842307
0.6473229
0.6631437
0.70287136
0.68277565
0.67227914
0.66470444
0.65873693
0.65310691
0.64798107
0.6434007
0.6394636
0.63613598
0.63333062
0.6309581
0.62894098
0.62721314
0.62572125
0.62442329
0.62328581
0.62228296
0.62139598
0.62061049
0.61991491
0.61929985
0.61875749
0.61828155
0.61786635
0.61750621
0.61719644
0.61693129
0.61670315
0.61650972
0.61635109
0.61622648
0.61613936
0.61609757
0.61611258
0.616201
0.61638643
0.61670163
0.61719308
0.61792576
0.61898867
0.62050352
0.62261638
0.62550495
0.62935863
0.63427973
0.64101631
0.64851088
0.66141196
0.71935713
0.69395433
0.67992047
0.67148746
0.66575559
0.66066111
0.65587426
0.65129653
0.64707865
0.64329804
0.63997808
0.63710264
0.63463468
0.63252556
0.6307242
0.62918179
0.62785427
0.62670465
0.62570272
0.62482388
0.62404844
0.62336094
0.62274899
0.62220275
0.62171469
0.62127906
0.6208912
0.62054662
0.6202381
0.61996558
0.61973339
0.61954363
0.6194037
0.61932635
0.61932862
0.61943308
0.61966922
0.62007489
0.62069823
0.62159905
0.6228489
0.62453371
0.62674506
0.62956676
0.63310319
0.63726954
0.64282149
0.64872865
0.65810512
0.74134109
0.71059197
0.69132395
0.68003796
0.67326116
0.66829906
0.66404961
0.65996601
0.65600022
0.65220389
0.6486571
0.64541848
0.64251943
0.63996376
0.6377347
0.63580232
0.63413057
0.63268296
0.63142491
0.63032529
0.62935736
0.62849929
0.62773367
0.62704658
0.6264275
0.62586888
0.62536559
0.62491466
0.6245083
0.62414869
0.62384599
0.62360581
0.62343958
0.62336377
0.62339846
0.62356787
0.62390044
0.62442843
0.62518644
0.62620905
0.6275274
0.62916807
0.63115155
0.63347372
0.63620004
0.63921583
0.64331648
0.64797014
0.65507265
0.76587214
0.73208024
0.70771089
0.69209653
0.68258266
0.67653894
0.67227844
0.6687054
0.66535253
0.66204043
0.65875894
0.65556065
0.65251362
0.64967384
0.64707554
0.64473126
0.64263675
0.64077685
0.63912995
0.637672
0.63637917
0.63522981
0.63420544
0.63329055
0.63247252
0.63174251
0.63109544
0.63052958
0.63003361
0.62960826
0.62926782
0.62901875
0.62887116
0.62883852
0.62893588
0.62917896
0.62958232
0.63015694
0.63090681
0.63182649
0.63290119
0.63410922
0.63543721
0.63687491
0.63855982
0.64053678
0.64366195
0.6480128
0.65467219
0.78979567
0.75601935
0.72846096
0.70845491
0.69499243
0.6863534
0.68083498
0.67702856
0.67404365
0.67135047
0.66869911
0.66600647
0.66328311
0.66057895
0.65795081
0.65544627
0.65309831
0.65092547
0.6489343
0.64712295
0.6454842
0.64400802
0.64268363
0.64150045
0.64044899
0.63952219
0.63871502
0.63802692
0.63743886
0.63694607
0.63656538
0.63629735
0.63614181
0.63610033
0.63617327
0.63635774
0.63664497
0.63701784
0.63745009
0.63790965
0.63836694
0.63880649
0.6392611
0.63981684
0.64076235
0.64236302
0.64545267
0.6504598
0.65795704
0.81199351
0.77990195
0.75168323
0.72871279
0.71129641
0.69907476
0.69093476
0.68561278
0.68204487
0.67942803
0.67723818
0.67517084
0.67308163
0.67092677
0.66871751
0.66648931
0.66428365
0.66213848
0.6600843
0.65814345
0.65633085
0.65465513
0.65312024
0.65172753
0.65047683
0.6493653
0.64839062
0.64755609
0.6468309
0.64620007
0.64568365
0.64527189
0.64494891
0.64470031
0.6445096
0.64435577
0.64421246
0.64404912
0.64383623
0.64355524
0.6432147
0.64286847
0.6426557
0.64279441
0.64369574
0.64574707
0.64962975
0.65583943
0.66463066
0.83453725
0.80297047
0.77550234
0.75152585
0.73132452
0.71561395
0.7041171
0.69611179
0.69071346
0.68708503
0.68455016
0.68261438
0.68095256
0.67937236
0.67777584
0.67612609
0.67442235
0.67268277
0.67093336
0.66920155
0.66751243
0.665887
0.66434203
0.66289065
0.66154089
0.66029711
0.65916251
0.65814772
0.65720583
0.65631008
0.65549234
0.65473556
0.6540119
0.65329822
0.65257171
0.65180905
0.65098927
0.65009927
0.64914337
0.64815628
0.64722064
0.6464819
0.64617484
0.6465981
0.64818053
0.65129492
0.65642494
0.66399605
0.6740455
0.86266701
0.82749194
0.79972477
0.77574405
0.75419324
0.73596143
0.72131112
0.71014374
0.70198885
0.69622498
0.69222468
0.68943742
0.68742741
0.68587436
0.6845585
0.68333921
0.68213424
0.68090183
0.67962676
0.67830998
0.67696165
0.67559597
0.67422832
0.67287208
0.67153843
0.67023489
0.66896951
0.66776615
0.66655545
0.66530184
0.6640666
0.66283467
0.66157785
0.66027974
0.65893026
0.65752672
0.65607886
0.65461626
0.65319771
0.6519216
0.65093762
0.65045008
0.65072732
0.65206791
0.65483034
0.65931261
0.66584868
0.6747795
0.6860406
0.90380115
0.85896879
0.82714118
0.80205721
0.77959689
0.75978575
0.74272861
0.72865245
0.71747225
0.70889105
0.70248449
0.69779485
0.69439456
0.69191727
0.69006856
0.6886233
0.68741671
0.68633319
0.68529531
0.68425419
0.68318145
0.68206313
0.68089377
0.67967402
0.67840726
0.67709535
0.67574732
0.67439999
0.67296672
0.67140517
0.66981087
0.66818887
0.66652133
0.66481176
0.66307757
0.66135031
0.65968019
0.65814188
0.65684028
0.65591502
0.65554427
0.6559393
0.6573446
0.66001083
0.66420859
0.67018255
0.67820713
0.68865421
0.70149892
0.96615004
0.90531949
0.86381081
0.83421821
0.80941889
0.78790642
0.76888183
0.75236774
0.73837717
0.72684029
0.71755416
0.71022985
0.70454176
0.70016676
0.69680927
0.69421373
0.69216838
0.69050371
0.68908771
0.68782054
0.68662831
0.68545832
0.68427504
0.68305604
0.68178638
0.68045607
0.6790696
0.67766198
0.67615356
0.67449333
0.67278859
0.67108383
0.66937565
0.66768855
0.66606725
0.6645731
0.66328623
0.66230823
0.66176382
0.66180092
0.66258981
0.66431675
0.66718488
0.67140207
0.67719835
0.68482963
0.69462453
0.70715837
0.72247667
1.0577062
0.97562989
0.91834044
0.87922169
0.84871463
0.82371678
0.80206054
0.7830575
0.76641177
0.75201982
0.73976827
0.72949754
0.72100093
0.71404397
0.70838551
0.70379402
0.70005807
0.69699204
0.69443767
0.69226302
0.6903618
0.68865031
0.68706458
0.6855571
0.68409276
0.68264792
0.68121897
0.67982477
0.67840644
0.67689939
0.67540083
0.67399491
0.67268881
0.67151743
0.67053923
0.66982881
0.66947622
0.66958745
0.6702842
0.67170283
0.67399427
0.6773217
0.68186914
0.6878438
0.69550568
0.70518801
0.71736067
0.73290184
0.75178548
1.186373
1.0793397
1.0008486
0.94664695
0.90571782
0.8738365
0.84741689
0.82477828
0.80496958
0.7875478
0.77226472
0.75894936
0.74744154
0.73757187
0.7291608
0.72202495
0.71598478
0.71087148
0.70653137
0.70282692
0.69963976
0.69687218
0.69444393
0.69229015
0.69036031
0.68861977
0.68705574
0.6856676
0.68440995
0.68320061
0.68211948
0.68127358
0.68067305
0.6803495
0.68035938
0.68077464
0.68168044
0.68317498
0.68536967
0.68839008
0.69237928
0.69750186
0.70395878
0.71199898
0.72195918
0.73428503
0.74961369
0.76909282
0.79231199
1.3622371
1.226835
1.1226311
1.0480186
0.9913605
0.94804552
0.91335703
0.88462211
0.86006511
0.83867244
0.81983647
0.80319002
0.78848514
0.77553045
0.76415887
0.75421403
0.74554566
0.73800945
0.73147165
0.72580936
0.72090971
0.71667417
0.71301993
0.70987618
0.70718527
0.70490649
0.70301817
0.70150229
0.70031703
0.6993642
0.69870307
0.69844797
0.69860802
0.69920373
0.70028064
0.7019012
0.70414191
0.70709371
0.71086363
0.71557851
0.72139168
0.72849202
0.7371214
0.74759165
0.76032983
0.77588609
0.79501763
0.81895038
0.84648689
1.6064132
1.4332523
1.2978365
1.1973376
1.1193155
1.0592614
1.0117005
0.97314748
0.9410115
0.91360581
0.88981077
0.86890049
0.85039272
0.83395473
0.81934216
0.80636278
0.79485593
0.78468007
0.77570738
0.76782634
0.76093693
0.75494674
0.7497734
0.74534675
0.74160943
0.73851928
0.73604632
0.73415821
0.73281429
0.73190638
0.73147035
0.73162166
0.73237184
0.73373091
0.7357331
0.73843289
0.74190224
0.74623171
0.75153371
0.75794823
0.76565156
0.77486805
0.78588841
0.79908657
0.81495943
0.83409911
0.85724931
0.88543997
0.91642284
1.9889471
1.7356579
1.5512786
1.4152308
1.3083519
1.2250059
1.158726
1.1052876
1.0613505
1.0245415
0.99315344
0.96598908
0.94220738
0.92121457
0.9025838
0.88599989
0.87122254
0.85806217
0.84636303
0.83599429
0.8268472
0.81882778
0.81185358
0.80585492
0.80077447
0.79656712
0.79319319
0.79060938
0.7887793
0.78759042
0.78705299
0.7872855
0.78831051
0.79013353
0.79278211
0.79630807
0.80078564
0.80631288
0.81301591
0.82105561
0.83063696
0.84202074
0.85553875
0.8716016
0.89071885
0.91342269
0.94029053
0.97200092
1.0052656
2.7929931
2.2803585
1.9609565
1.7506056
1.5934644
1.4737184
1.3794164
1.3037598
1.241927
1.1905688
1.1472626
1.1102532
1.0782571
1.0503311
1.0257758
1.0040668
0.98480509
0.96768322
0.95245981
0.93894114
0.92697019
0.91641995
0.90718725
0.89918707
0.89234991
0.88661725
0.8819332
0.87824556
0.87552755
0.87366153
0.87262169
0.87253672
0.87345143
0.87537463
0.87833389
0.88238506
0.88761157
0.89412598
0.90207419
0.91164158
0.92306062
0.93661873
0.95266495
0.97160298
0.9938867
1.0199152
1.0500348
1.0847966
1.1198527
5.0826535
3.7096135
2.890269
2.4166074
2.1066711
1.8925295
1.7353857
1.6152459
1.5204253
1.4437374
1.3804634
1.3273815
1.2822215
1.2433483
1.2095631
1.1799739
1.1539079
1.1308521
1.1104101
1.0922717
1.0761924
1.0619793
1.0494787
1.0385644
1.0291327
1.0210943
1.0143683
1.0088982
1.0046786
1.0015435
0.9994202
0.99848342
0.99880265
1.0003868
1.0032649
1.0074994
1.0131852
1.0204496
1.0294563
1.0404093
1.053559
1.0692064
1.0877067
1.1094629
1.1349351
1.1646034
1.1990586
1.2403546
1.2838028
10.815973
7.9174202
5.8132955
4.4266636
3.5159385
2.9202748
2.5222346
2.2466482
2.0477916
1.8984613
1.7823377
1.689401
1.6132881
1.5498041
1.4960812
1.4500916
1.410361
1.3757951
1.3455666
1.3190382
1.2957108
1.2751922
1.2571746
1.2414161
1.2277197
1.2159187
1.2058731
1.1974933
1.1907728
1.1855215
1.18156
1.1790608
1.1781787
1.1789331
1.1813592
1.1855402
1.1916052
1.1997308
1.2101467
1.2231451
1.2390936
1.2584522
1.2818
1.3098762
1.3436915
1.3847137
1.4356094
1.5053619
1.5873338
20.58593
16.56354
13.149449
10.40028
8.228125
6.5572776
5.3025202
4.3761103
3.6982155
3.2026964
2.8382964
2.5671274
2.3620574
2.2040307
2.0798016
1.9801976
1.8988551
1.8313319
1.7745008
1.726138
1.6846357
1.6488069
1.6177626
1.5908333
1.5675088
1.5473931
1.5301767
1.5156337
1.5036355
1.4940464
1.4866146
1.4813595
1.4785029
1.4781192
1.4802767
1.4851006
1.4927875
1.5036187
1.5179878
1.5364528
1.5598376
1.5894321
1.6274016
1.677632
1.7474976
1.8513185
2.018619
2.3097292
2.7608988
33.973755
29.323762
25.201959
21.609367
18.478697
15.767626
13.442412
11.467855
9.8065553
8.4202902
7.2715999
6.3251272
5.5485633
4.9131846
4.3940441
3.9699096
3.623022
3.3387435
3.1051471
2.9126075
2.7534119
2.6214101
2.5117059
2.4204093
2.3444435
2.2813925
2.2293732
2.1869388
2.1530308
2.126977
2.1081512
2.0962379
2.0914976
2.0944088
2.105755
2.126785
2.1593938
2.2063727
2.2717898
2.3615702
2.4843707
2.6529022
2.8858894
3.2108668
3.6679682
4.3146402
5.2313779
6.5143735
8.2198785
51.64399
46.39595
41.746765
37.638577
33.978393
30.701095
27.762165
25.127306
22.767976
20.659206
18.77836
17.10445
15.617848
14.300187
13.134342
12.104474
11.196064
10.395935
9.6922547
9.0744862
8.5333389
8.0606942
7.6495177
7.2937713
6.9883317
6.7289291
6.5120931
6.3351166
6.1960513
6.093752
6.0277712
5.9982881
6.006542
6.0548023
6.1464481
6.2862082
6.4804579
6.7375875
7.0684922
7.4871779
8.0115419
8.6643238
9.4742404
10.477274
11.718048
13.251221
15.142074
17.460401
20.230911
75.944702
69.7901
64.398611
59.667455
55.472126
51.717788
48.33589
45.274758
42.494272
39.962603
37.653915
35.546727
33.622802
31.866375
30.263626
28.802297
27.47146
26.261325
25.163132
24.169068
23.272197
22.466419
21.746437
21.10773
20.546525
20.059779
19.645182
19.301171
19.026954
18.822555
18.688885
18.627748
18.64191
18.735381
18.913494
19.18308
19.552736
20.03314
20.637407
21.381569
22.285105
23.371585
24.669453
26.212898
28.042823
30.208028
32.766755
35.787359
39.279007
111.81335
104.05593
97.373978
91.57912
86.503562
82.012526
78.004216
74.400743
71.141753
68.18002
65.478178
63.006243
60.739853
58.658937
56.746793
54.989349
53.374683
51.892616
50.534449
49.29275
48.161188
47.134434
46.208059
45.37849
44.642955
43.999471
43.446833
42.984611
42.613184
42.333771
42.148501
42.060473
42.073764
42.193668
42.426853
42.781544
43.267759
43.897616
44.685683
45.64945
46.809891
48.192194
49.826696
51.750061
54.006852
56.651757
59.754024
63.406637
67.642985
171.47722
159.96161
150.40902
142.37146
135.49429
129.52336
124.27941
119.63104
115.4788
111.74604
108.37255
105.31043
102.52115
99.973452
97.641697
95.504793
93.545227
91.748421
90.102222
88.59651
87.222892
85.974471
84.84569
83.832203
82.930778
82.139239
81.456425
80.88217
80.41731
80.063716
79.824354
79.703355
79.706083
79.839236
80.111253
80.532427
81.115262
81.874815
82.829322
84.000814
85.416109
87.107937
89.116963
91.493985
94.303616
97.62908
101.58003
106.30936
111.90442
0.64001456
0.66373326
0.69213588
0.69878276
0.71072735
0.7252971
0.74615866
0.77067753
0.79488506
0.8167671
0.83767486
0.86231157
0.89766591
0.9514876
1.0310339
1.1427439
1.2932996
1.4934152
1.7742199
2.2638622
3.4821798
6.8533691
13.87334
24.451674
38.434483
56.840492
82.328968
120.41917
185.22175
0.65571487
0.67849918
0.70550495
0.70918605
0.72409573
0.74042688
0.76311049
0.78768679
0.81050496
0.83098949
0.85216712
0.87998467
0.92184437
0.98507706
1.0760306
1.2002783
1.3642126
1.5802951
1.8928515
2.4994896
4.1434312
8.394069
16.269041
27.438694
41.986407
61.147099
87.839968
128.11143
197.48061
0.67490612
0.69530508
0.71900535
0.72159845
0.73939294
0.75695559
0.78065806
0.80427796
0.82530734
0.84487988
0.86754776
0.90006763
0.94974766
1.0231227
1.1255179
1.261797
1.4384644
1.6714311
2.0274789
2.8079582
5.0009902
10.146544
18.750837
30.435773
45.527116
65.443161
93.357886
135.82276
209.60769
0.69593963
0.71286718
0.73219952
0.73574083
0.75558474
0.77387434
0.79767979
0.81965375
0.8390323
0.8585696
0.88399382
0.92238533
0.9805454
1.0640173
1.1771744
1.3244284
1.5129244
1.7646047
2.1813758
3.2028599
6.0358362
12.015253
21.226206
33.372366
48.99219
69.660197
98.795527
143.42351
221.39933
0.71818702
0.73087344
0.74531387
0.75136079
0.77212392
0.79072685
0.81374708
0.83376985
0.85199996
0.87252702
0.90184873
0.94692096
1.0137438
1.1068162
1.229736
1.3867624
1.586416
1.860478
2.3623776
3.6996494
7.2260038
13.945586
23.666165
36.237883
52.374898
73.788343
104.12935
150.86153
232.72638
0.74154128
0.74923429
0.75856093
0.7681353
0.7886192
0.80719106
0.82868569
0.84683659
0.86465553
0.88721713
0.92138005
0.97359897
1.0489015
1.1508065
1.2823744
1.4480475
1.658776
1.9615464
2.5811163
4.3102407
8.5434251
15.901624
26.059529
39.031906
55.675418
77.823496
109.34292
158.09646
243.48451
0.76610582
0.76787938
0.7720573
0.78568853
0.80474975
0.82300922
0.84247211
0.85915144
0.8774134
0.90298208
0.94269029
1.002204
1.0855228
1.1953365
1.3344371
1.5078366
1.7304166
2.0716025
2.8494624
5.039363
9.9569024
17.858779
28.401311
41.755714
58.89446
81.762089
114.42213
165.0939
253.59191
0.7920205
0.78677516
0.78584263
0.8036442
0.82026763
0.83801685
0.85520666
0.871042
0.8906185
0.92002667
0.96572265
1.0323954
1.1230617
1.2397894
1.3853807
1.5658858
1.8022087
2.1955445
3.1791102
5.8833404
11.436387
19.800596
30.689425
44.410869
62.0326
85.600811
119.35495
171.82485
262.98943
0.81942716
0.80593889
0.79989985
0.82166588
0.83500907
0.85215672
0.86708063
0.88283361
0.90453821
0.93843502
0.99029981
1.0637594
1.1609704
1.2836174
1.4347916
1.6221738
1.875531
2.3393282
3.5802573
6.8312021
12.956069
21.716629
32.92348
46.999045
65.09039
89.33682
124.13156
178.26559
271.63917
0.84847429
0.82540815
0.81417097
0.83947284
0.8488917
0.86546297
0.87833572
0.89482221
0.91935805
0.95818829
1.0161603
1.0958521
1.1987388
1.3263695
1.4824048
1.6769297
1.9523376
2.5098277
4.0603147
7.8670801
14.495514
23.600646
35.104083
49.521971
68.068456
92.967881
128.74424
184.39748
279.52181
0.87930688
0.8452069
0.82857186
0.85684326
0.8619026
0.87803599
0.88922952
0.90725428
0.93518015
0.97918039
1.0429869
1.1282304
1.2359152
1.3676996
1.5281051
1.730644
2.0352016
2.7145186
4.6228591
8.9729174
16.039462
25.449209
37.232406
51.981393
70.967557
96.492403
133.18724
190.20656
286.63334
0.91204781
0.86533032
0.84300352
0.87361242
0.87408365
0.89001928
0.90001032
0.92031532
0.95202588
1.0012334
1.0704307
1.1604731
1.2721188
1.4073672
1.5719233
1.7840805
2.1273419
2.9609873
5.2671396
10.130794
17.57703
27.260695
39.309919
54.379057
73.788603
99.909435
137.45653
195.68321
292.98193
0.94678829
0.8857451
0.85736141
0.88966876
0.88551684
0.90157874
0.91089886
0.93412416
0.96984255
1.0241146
1.0981314
1.1921977
1.3070473
1.445238
1.6140359
1.8382977
2.2326228
3.2563027
5.9882936
11.32451
19.100767
29.034647
41.338257
56.716708
76.532675
103.2186
141.5496
200.82173
298.585
0.98359229
0.90639791
0.87154395
0.90494733
0.89630936
0.912884
0.92207532
0.94873232
0.98851311
1.0475529
1.1257359
1.2230735
1.3404823
1.4812826
1.6547683
1.8946789
2.3555056
3.6063231
6.7781895
12.540393
20.605791
30.771353
43.319143
58.996103
79.201025
106.42006
145.46522
205.61997
303.46709
1.0225102
0.92722923
0.88546151
0.91942335
0.9065815
0.92409308
0.93367131
0.96412691
1.0078684
1.0712572
1.1529153
1.2528325
1.372293
1.5155771
1.6946013
1.9549651
2.5009278
4.0150507
7.6266233
13.767504
22.089083
32.471579
45.254339
61.219017
81.795058
109.51443
149.20331
210.07891
307.65798
1.0635956
0.9481895
0.89904586
0.93310735
0.91645776
0.93534169
0.94576677
0.98023737
1.0277011
1.0949326
1.1793782
1.2812763
1.4024369
1.5483004
1.7341802
2.0212856
2.674095
4.4841663
8.5225594
14.997457
23.548956
34.136403
47.145631
63.387237
84.316328
112.50274
152.76478
214.20227
311.19145
1.1069215
0.96925516
0.9122587
0.94604185
0.92606131
0.94673689
0.95839104
0.99694465
1.0477807
1.1182966
1.2048826
1.3082807
1.4309577
1.5797322
1.7743271
2.096176
2.8801843
5.0128568
9.4551818
16.224069
24.984662
35.76711
48.994812
65.502573
86.76651
115.38634
156.15137
217.99621
314.10421
1.1525918
0.99044083
0.92509784
0.95829837
0.93551068
0.9583543
0.97152663
1.0140915
1.0678675
1.1410929
1.2292444
1.3337975
1.4579826
1.610251
1.8160568
2.1825727
3.1239779
5.5979692
10.414627
17.442973
26.396113
37.365117
50.803676
67.566841
89.147378
118.16693
159.3656
221.46896
316.43524
1.2007488
1.0118062
0.93759953
0.96997309
0.94491681
0.9702372
0.98511492
1.0314936
1.0877254
1.1631016
1.2523422
1.3578532
1.4837156
1.6403312
1.8605937
2.2837738
3.4094704
6.2344547
11.392404
18.651232
27.783707
38.931931
52.574016
69.581876
91.460799
120.84641
162.41067
224.63058
318.22521
1.2515734
1.0334572
0.94983648
0.98118034
0.95437989
0.98239663
0.99906209
1.0489495
1.1071327
1.1841475
1.2741199
1.3805452
1.5084325
1.670544
1.9093911
2.4033581
3.7395106
6.9159929
12.381539
19.84702
29.148186
40.469125
54.307623
71.549526
93.708709
123.42696
165.29039
227.49262
319.51594
1.3052828
1.0555417
0.96191118
0.99204279
0.96398372
0.99481115
1.0132456
1.066251
1.1258914
1.204106
1.2945867
1.4020382
1.5324741
1.7015602
1.9641459
2.5450545
4.1155417
7.6356589
13.376564
21.029366
30.49055
41.978319
56.006281
73.471645
95.89311
125.91097
168.0091
230.06794
320.35008
1.3621232
1.0782429
0.97394694
1.0026804
0.97378968
1.0074269
1.0275213
1.0831931
1.1438361
1.2229072
1.3138164
1.4225582
1.5562417
1.7341573
2.0268095
2.712569
4.5374942
8.3865259
14.373376
22.197961
31.811986
43.461167
57.671778
75.350096
98.016054
128.30097
170.57167
232.37044
320.77052
1.4223634
1.1017702
0.98607561
1.0131973
0.98382949
1.0201582
1.0417307
1.0995845
1.1608425
1.2405398
1.3319454
1.4423885
1.5801949
1.7692314
2.0995848
2.9093772
5.0038518
9.1621335
15.369069
23.353007
33.113842
44.91935
59.305896
77.186757
100.07963
130.5997
172.98333
234.41483
320.81998
1.4862887
1.1263526
0.99842689
1.0236696
0.99409927
1.0328898
1.0557104
1.1152586
1.1768351
1.2570547
1.3491718
1.461865
1.6048504
1.80781
2.1849059
3.1385069
5.5118725
9.9568047
16.361753
24.495108
34.397585
46.354583
60.910425
78.983508
102.08599
132.81002
175.24971
236.21639
320.54048
1.5541982
1.1522323
1.0111181
1.0341357
1.0045559
1.0454815
1.0693018
1.130085
1.1917964
1.2725684
1.3657532
1.481372
1.6307842
1.851069
2.2853989
3.4023385
6.0579305
10.765823
17.350378
25.625191
35.664786
47.768603
62.487169
80.742252
104.0373
134.9349
177.37674
237.79069
319.97267
1.6264047
1.1796647
1.024249
1.0445893
1.0151169
1.057775
1.0823626
1.1439812
1.2057748
1.287265
1.3820044
1.5013392
1.6586357
1.9003457
2.4038149
3.7024566
6.6379092
11.585495
18.334603
26.744455
36.917112
49.163191
64.037947
82.464902
105.93576
136.97744
179.37056
239.15339
319.15511
1.7032371
1.2089191
1.0378983
1.0549778
1.0256647
1.0696044
1.0947799
1.156924
1.218891
1.3013972
1.398293
1.5222371
1.6891133
1.957151
2.5429444
4.0395761
7.2475858
12.41314
19.31467
27.854329
38.156322
50.540167
65.564602
84.153398
107.78363
138.94079
181.23745
240.31988
318.12355
1.7850431
1.2402824
1.0521255
1.065205
1.0360551
1.08081
1.1064829
1.1689593
1.231342
1.3152846
1.4150351
1.5445732
1.7230024
2.0231755
2.7055132
4.4135618
7.8829746
13.247025
20.291323
28.956452
39.384269
51.901399
67.069022
85.80971
109.58316
140.82819
182.98379
241.30502
316.91099
1.8721864
1.2740617
1.0669748
1.0751386
1.0461314
1.091254
1.1174568
1.1802093
1.2434028
1.3293089
1.4326859
1.5688876
1.7611746
2.1002879
2.8940778
4.8235428
8.5406014
14.086298
21.265741
30.052658
40.602914
53.248829
68.55314
87.435838
111.33668
142.6429
184.61598
242.1231
315.54969
1.965034
1.3105854
1.0824827
1.0846242
1.0557434
1.1008408
1.127756
1.1908781
1.2554234
1.3439042
1.4517306
1.5957491
1.8045996
2.1905267
3.1109285
5.2681075
9.2177012
14.930907
22.239491
31.144977
41.814331
54.58448
70.018955
89.033845
113.04652
144.38823
186.1404
242.78811
314.07172
2.0639251
1.3502005
1.0986873
1.0935036
1.0647718
1.1095387
1.1375176
1.2012538
1.2678221
1.3595441
1.472671
1.6257516
1.8543577
2.2960833
3.3580205
5.7455541
9.912351
15.781532
23.214521
32.235649
43.020738
55.910484
71.46856
90.605858
114.71511
146.06752
187.56332
243.31418
312.5045
2.1691143
1.3932655
1.1156424
1.1016413
1.073157
1.1174055
1.1469738
1.2117075
1.2810732
1.3767229
1.4960103
1.6595126
1.911658
2.4192849
3.6369563
6.2541696
10.623556
16.639538
24.193151
33.327144
44.224524
57.229122
72.904182
92.15412
116.34493
147.68418
188.89099
243.71551
310.86742
2.2806833
1.4401384
1.1334371
1.1089572
1.0809335
1.1246149
1.1564633
1.2226883
1.295691
1.3959326
1.5222379
1.6976751
1.9778592
2.562577
3.949019
6.7925231
11.351293
17.506957
25.178091
34.422213
45.428313
58.542883
74.32824
93.68105
117.93867
149.24175
190.12977
244.0061
309.17331
2.3984171
1.4911652
1.1522245
1.1154701
1.0882672
1.1314823
1.1664386
1.2347122
1.3122082
1.4176367
1.5518147
1.7409141
2.0544999
2.7285229
4.2952907
7.359754
12.09656
18.38648
26.17247
35.523916
46.634991
59.854501
75.743393
95.18928
119.49923
150.74392
191.28621
244.19948
307.43079
2.5216312
1.5466689
1.1722658
1.1213512
1.0954947
1.1384865
1.1774664
1.2483459
1.3311506
1.4422416
1.5851624
1.7899502
2.1433414
2.9198243
4.6768435
7.9558653
12.861439
19.281517
27.179899
36.635675
47.847749
61.166974
77.152532
96.681643
121.02967
152.19452
192.3671
244.30845
305.64729
2.6489631
1.6069356
1.1939899
1.1269878
1.1031598
1.1462822
1.1902182
1.2641816
1.3530078
1.470068
1.6226616
1.8455765
2.2464381
3.1394032
5.09505
8.5820661
13.649275
20.196427
28.20482
37.761774
49.070745
62.484418
78.5599
98.162608
122.53524
153.60009
193.38253
244.3496
303.83452
2.7779787
1.6722305
1.2180942
1.1330707
1.1120501
1.155697
1.2054428
1.2827971
1.3782015
1.5013255
1.6646659
1.9086996
2.3662448
3.3905536
5.5519635
9.2410428
14.46491
21.137126
29.253677
38.909187
50.311693
63.815516
79.975497
99.643891
124.03032
154.97892
194.35742
244.35723
302.02812
2.9053468
1.7425652
1.245512
1.1405644
1.1231549
1.1676678
1.223902
1.3047001
1.4070389
1.5360904
1.7114925
1.9803957
2.5058551
3.6771221
6.050165
9.9362265
15.313706
22.110083
30.333825
40.086297
51.580246
65.171449
81.412276
101.14101
125.53392
156.35731
195.33053
244.39575
300.31404
3.0252937
1.8186024
1.2784888
1.1513671
1.1380406
1.1835074
1.2464738
1.3304372
1.4398049
1.5744997
1.7639582
2.0627685
2.6695517
4.00259
6.5908449
10.668115
16.193827
23.108135
31.430931
41.270398
52.84402
66.509024
82.813537
102.58262
126.95466
157.62631
196.17385
244.32875
298.48933
3.1011799
1.872536
1.3038222
1.1606562
1.1498461
1.1958194
1.2630228
1.3488377
1.4625845
1.6007445
1.7998689
2.1199389
2.7843183
4.2271103
6.9528236
11.145341
16.755823
23.732818
32.103358
41.979827
53.581702
67.26596
83.573988
103.31982
127.60713
158.08522
196.22482
243.64935
296.55082
3.1325499
1.8974823
1.3164028
1.1658607
1.1560697
1.2022615
1.2711418
1.3577044
1.4731826
1.6128468
1.8164019
2.146871
2.8389088
4.3324175
7.1185222
11.360668
17.007924
24.012725
32.405512
42.301155
53.92105
67.624037
83.951958
103.72065
128.03098
158.53381
196.69161
244.1211
296.8659
3.1568193
1.918787
1.3275218
1.1709067
1.1618267
1.2083003
1.2784598
1.3657507
1.4826168
1.6237566
1.8313714
2.1719719
2.8905817
4.4324396
7.2755511
11.565681
17.250357
24.28544
32.704422
42.624609
54.269382
67.999709
84.358266
104.16298
128.5116
159.05439
197.23625
244.64648
297.12435
3.1758793
1.9373895
1.3373924
1.1757613
1.167159
1.2139925
1.2851486
1.3732003
1.4912174
1.6338722
1.8453273
2.1960635
2.9409596
4.5304407
7.4294844
11.767894
17.491943
24.560651
33.010396
42.960914
54.637711
68.404111
84.803847
104.657
129.05743
159.65177
197.85858
245.21968
297.32426
3.1908967
1.9538903
1.346217
1.1804467
1.1721564
1.2194332
1.2913873
1.3802573
1.4992713
1.6435225
1.8587499
2.2199397
2.9917226
4.6297177
7.5856569
11.97439
17.741094
24.847821
33.333792
43.321284
55.038117
68.850236
85.302758
105.21785
129.685
160.34357
198.57793
245.86102
297.48428
3.2027274
1.9686966
1.3541618
1.1849981
1.176905
1.2247154
1.2973317
1.3870942
1.5070148
1.6529801
1.87205
2.2443362
3.0444786
4.7333673
7.7489511
12.19163
18.005587
25.15588
33.684616
43.716817
55.482913
69.351804
85.870438
105.86298
130.41418
161.15197
199.41894
246.59274
297.61585
3.2120516
1.9820941
1.3613622
1.1894497
1.1814825
1.229922
1.3031142
1.3938564
1.5146435
1.662474
1.8855879
2.2699541
3.1007897
4.8443553
7.9239283
12.425627
18.292716
25.493308
34.072545
44.158473
55.984501
69.922971
86.52313
106.61116
131.26675
162.10131
200.40783
247.43527
297.72355
3.2194483
1.9942914
1.3679388
1.1938334
1.1859596
1.2351247
1.308848
1.4006642
1.5223197
1.6721977
1.8996845
2.2974714
3.1621963
4.9655287
8.1148604
12.681942
18.609231
25.868013
34.506677
44.656659
56.554836
70.577489
87.27685
107.48094
132.26424
163.21528
201.56895
248.40405
297.80597
3.2254411
2.005448
1.3740089
1.1981795
1.190402
1.2403838
1.3146275
1.4076144
1.5301738
1.682308
1.9146229
2.3275414
3.230198
5.0995502
8.3255878
12.965481
18.961024
26.286866
34.994926
45.220444
57.204332
71.327403
88.145568
108.48849
133.42516
164.51359
202.92092
249.50683
297.85561
3.2305245
2.0156968
1.3796913
1.2025159
1.194868
1.2457455
1.3205276
1.4147765
1.5383017