/*--------------------------------*- C++ -*----------------------------------*\
| =========                 |                                                 |
| \\      /  F ield         | OpenFOAM: The Open Source CFD Toolbox           |
|  \\    /   O peration     | Version:  2206                                  |
|   \\  /    A nd           | Website:  www.openfoam.com                      |
|    \\/     M anipulation  |                                                 |
\*---------------------------------------------------------------------------*/
FoamFile
{
    version     2.0;
    format      ascii;
    arch        "LSB;label=32;scalar=64";
    class       volScalarField;
    location    "0";
    object      p_0;
}
// * * * * * * * * * * * * * * * * * * * * * * * * * * * * * * * * * * * * * //

dimensions      [1 -1 -2 0 0 0 0];

internalField   nonuniform List<scalar> 
19794
(
101239.83
101264.45
101287.98
101309.81
101328.97
101346
101361.95
101376.57
101390.07
101402.57
101414.19
101425.08
101435.39
101445.34
101455.14
101464.95
101474.92
101485.11
101495.52
101506.15
101516.97
101527.96
101539.07
101550.27
101561.52
101572.77
101583.98
101595.09
101606.06
101616.84
101627.39
101637.65
101647.7
101657.58
101667.42
101677.41
101687.74
101698.61
101710.18
101722.51
101735.6
101749.27
101763.3
101777.39
101791.25
101804.32
101815.77
101824.17
101829.2
101266.21
101279.42
101294.5
101311.6
101328.53
101344.78
101359.82
101373.89
101387.19
101399.82
101411.82
101423.22
101434.11
101444.63
101454.95
101465.23
101475.59
101486.12
101496.84
101507.73
101518.78
101529.95
101541.18
101552.45
101563.7
101574.9
101586
101596.95
101607.68
101618.11
101628.2
101637.91
101647.2
101656.11
101664.7
101673.05
101681.25
101689.34
101697.27
101704.9
101711.99
101718.05
101722.54
101724.84
101724.23
101719.67
101710.1
101691.63
101666.37
101251.57
101273.67
101292.65
101310.91
101327.77
101343.57
101358.29
101372.26
101385.58
101398.34
101410.57
101422.29
101433.54
101444.43
101455.09
101465.68
101476.33
101487.12
101498.1
101509.25
101520.54
101531.93
101543.38
101554.82
101566.18
101577.41
101588.44
101599.18
101609.55
101619.49
101628.97
101637.93
101646.41
101654.44
101662.1
101669.52
101676.77
101683.9
101690.88
101697.57
101703.74
101709.2
101713.8
101717.48
101720.25
101721.91
101722.78
101721.67
101730.38
101244.13
101266.34
101287.04
101307.13
101325.52
101342.41
101357.97
101372.61
101386.49
101399.73
101412.4
101424.5
101436.1
101447.28
101458.17
101468.89
101479.62
101490.42
101501.35
101512.41
101523.61
101534.91
101546.26
101557.6
101568.85
101579.93
101590.75
101601.27
101611.41
101621.13
101630.37
101639.17
101647.55
101655.59
101663.4
101671.1
101678.78
101686.49
101694.23
101701.93
101709.42
101716.51
101723
101728.66
101733.22
101736.12
101737.4
101735.6
101730.6
101237.58
101260.43
101281.85
101302.73
101322.11
101340.04
101356.57
101372.05
101386.65
101400.55
101413.81
101426.46
101438.56
101450.17
101461.41
101472.41
101483.3
101494.14
101505.03
101515.99
101527.07
101538.23
101549.4
101560.53
101571.54
101582.38
101592.99
101603.33
101613.31
101622.9
101632.09
101640.93
101649.45
101657.73
101665.88
101673.96
101682.05
101690.18
101698.29
101706.3
101714.04
101721.27
101727.77
101733.21
101737.31
101739.49
101739.64
101736.34
101733.86
101229.64
101253.86
101276.42
101298.03
101318.09
101336.7
101353.97
101370.14
101385.41
101399.92
101413.77
101427
101439.65
101451.79
101463.49
101474.88
101486.04
101497.06
101508.05
101519.06
101530.1
101541.15
101552.19
101563.14
101573.98
101584.65
101595.09
101605.24
101615.04
101624.51
101633.65
101642.49
101651.06
101659.45
101667.73
101675.95
101684.15
101692.32
101700.42
101708.32
101715.83
101722.77
101728.91
101734.07
101738.09
101740.55
101741.57
101740.43
101740.98
101220.97
101246.19
101269.91
101292.38
101313.22
101332.54
101350.47
101367.28
101383.16
101398.26
101412.69
101426.48
101439.69
101452.37
101464.57
101476.38
101487.88
101499.16
101510.33
101521.43
101532.5
101543.52
101554.47
101565.34
101576.04
101586.53
101596.78
101606.76
101616.45
101625.82
101634.89
101643.7
101652.29
101660.72
101669.04
101677.32
101685.57
101693.77
101701.87
101709.75
101717.25
101724.21
101730.49
101735.94
101740.46
101743.69
101745.89
101746.58
101748.35
101211.88
101237.78
101262.42
101285.67
101307.32
101327.39
101346.04
101363.53
101380.05
101395.77
101410.8
101425.18
101438.97
101452.2
101464.91
101477.17
101489.05
101500.63
101512
101523.22
101534.32
101545.33
101556.21
101566.96
101577.54
101587.91
101598.04
101607.9
101617.49
101626.79
101635.84
101644.65
101653.29
101661.8
101670.24
101678.64
101687.02
101695.35
101703.59
101711.61
101719.29
101726.5
101733.1
101739
101744.05
101747.99
101750.97
101752.68
101755.19
101202.25
101228.75
101254.16
101278.07
101300.46
101321.27
101340.66
101358.85
101376.05
101392.43
101408.09
101423.08
101437.46
101451.25
101464.49
101477.22
101489.51
101501.42
101513.03
101524.39
101535.56
101546.57
101557.41
101568.07
101578.55
101588.82
101598.85
101608.62
101618.16
101627.44
101636.51
101645.39
101654.14
101662.8
101671.41
101679.99
101688.56
101697.1
101705.53
101713.76
101721.67
101729.15
101736.09
101742.38
101747.88
101752.38
101756
101758.55
101761.88
101191.97
101219.02
101245.15
101269.69
101292.78
101314.29
101334.41
101353.31
101371.21
101388.26
101404.56
101420.17
101435.13
101449.49
101463.25
101476.46
101489.16
101501.41
101513.29
101524.85
101536.14
101547.19
101558.04
101568.67
101579.1
101589.3
101599.28
101609.02
101618.54
101627.84
101636.97
101645.96
101654.85
101663.69
101672.5
101681.31
101690.11
101698.88
101707.55
101716.02
101724.19
101731.96
101739.24
101745.93
101751.88
101756.94
101761.24
101764.68
101768.85
101181.06
101208.61
101235.41
101260.58
101284.36
101306.58
101327.43
101347.06
101365.66
101383.38
101400.31
101416.53
101432.07
101446.96
101461.23
101474.9
101488.02
101500.64
101512.81
101524.61
101536.06
101547.23
101558.14
101568.8
101579.23
101589.43
101599.4
101609.15
101618.71
101628.07
101637.29
101646.41
101655.48
101664.52
101673.57
101682.64
101691.71
101700.75
101709.69
101718.45
101726.94
101735.06
101742.75
101749.89
101756.35
101762.02
101767
101771.29
101776.21
101169.58
101197.58
101225.05
101250.83
101275.32
101298.27
101319.86
101340.22
101359.53
101377.93
101395.5
101412.31
101428.4
101443.81
101458.57
101472.69
101486.22
101499.21
101511.71
101523.77
101535.45
101546.78
101557.81
101568.57
101579.06
101589.31
101599.33
101609.12
101618.75
101628.22
101637.58
101646.88
101656.15
101665.44
101674.77
101684.13
101693.51
101702.87
101712.14
101721.25
101730.11
101738.67
101746.82
101754.47
101761.48
101767.75
101773.43
101778.48
101784.04
101157.62
101186.07
101214.19
101240.61
101265.82
101289.51
101311.85
101332.95
101352.98
101372.04
101390.25
101407.65
101424.29
101440.21
101455.44
101470.01
101483.95
101497.32
101510.15
101522.52
101534.46
101546.01
101557.22
101568.12
101578.73
101589.08
101599.18
101609.08
101618.84
101628.45
101637.99
101647.51
101657.05
101666.63
101676.27
101685.97
101695.7
101705.42
101715.07
101724.58
101733.89
101742.92
101751.6
101759.78
101767.37
101774.27
101780.6
101786.33
101792.49
101145.22
101174.15
101202.96
101230.03
101255.99
101280.43
101303.54
101325.39
101346.14
101365.89
101384.72
101402.71
101419.9
101436.33
101452.04
101467.06
101481.42
101495.18
101508.37
101521.06
101533.27
101545.08
101556.51
101567.6
101578.37
101588.88
101599.14
101609.19
101619.14
101628.95
101638.74
101648.54
101658.38
101668.3
101678.29
101688.36
101698.47
101708.59
101718.67
101728.63
101738.42
101747.97
101757.18
101765.94
101774.13
101781.64
101788.63
101794.99
101801.69
101132.37
101161.86
101191.41
101219.21
101245.93
101271.16
101295.06
101317.68
101339.17
101359.61
101379.1
101397.69
101415.44
101432.4
101448.59
101464.07
101478.86
101493.01
101506.58
101519.6
101532.13
101544.21
101555.89
101567.2
101578.2
101588.91
101599.4
101609.68
101619.88
101629.98
101640.08
101650.21
101660.41
101670.7
101681.08
101691.55
101702.08
101712.62
101723.14
101733.58
101743.88
101753.98
101763.75
101773.09
101781.87
101790.02
101797.61
101804.55
101811.77
101118.91
101149.11
101179.52
101208.15
101235.7
101261.77
101286.5
101309.94
101332.19
101353.37
101373.53
101392.76
101411.09
101428.59
101445.29
101461.24
101476.47
101491.04
101504.99
101518.37
101531.23
101543.61
101555.57
101567.16
101578.43
101589.42
101600.2
101610.81
101621.34
101631.8
101642.28
101652.8
101663.41
101674.11
101684.91
101695.8
101706.76
101717.75
101728.74
101739.66
101750.48
101761.12
101771.45
101781.37
101790.73
101799.47
101807.64
101815.14
101822.78
101104.53
101135.69
101167.16
101196.76
101225.26
101252.26
101277.89
101302.2
101325.28
101347.23
101368.12
101388.02
101406.98
101425.06
101442.3
101458.74
101474.44
101489.45
101503.8
101517.56
101530.78
101543.51
101555.8
101567.72
101579.33
101590.68
101601.84
101612.85
101623.79
101634.69
101645.62
101656.59
101667.65
101678.8
101690.05
101701.39
101712.79
101724.24
101735.69
101747.1
101758.42
101769.58
101780.45
101790.92
101800.84
101810.12
101818.83
101826.81
101834.79
101088.79
101121.22
101154
101184.81
101214.43
101242.49
101269.14
101294.41
101318.4
101341.19
101362.87
101383.5
101403.14
101421.85
101439.67
101456.67
101472.88
101488.36
101503.17
101517.36
101530.99
101544.12
101556.83
101569.16
101581.19
101592.98
101604.59
101616.08
101627.52
101638.92
101650.36
101661.84
101673.39
101685.03
101696.75
101708.55
101720.41
101732.31
101744.22
101756.11
101767.91
101779.55
101790.94
101801.91
101812.34
101822.12
101831.29
101839.66
101847.93
101071.1
101105.15
101139.56
101171.87
101202.85
101232.18
101260.01
101286.37
101311.38
101335.13
101357.69
101379.14
101399.54
101418.95
101437.44
101455.05
101471.85
101487.89
101503.23
101517.93
101532.07
101545.7
101558.91
101571.75
101584.3
101596.62
101608.78
101620.82
101632.81
101644.78
101656.77
101668.8
101680.89
101693.04
101705.26
101717.54
101729.87
101742.22
101754.59
101766.92
101779.18
101791.28
101803.12
101814.55
101825.44
101835.66
101845.2
101853.9
101862.41
101050.49
101086.67
101123.17
101157.37
101190.02
101220.88
101250.1
101277.76
101303.96
101328.81
101352.39
101374.78
101396.06
101416.3
101435.56
101453.91
101471.41
101488.12
101504.11
101519.46
101534.22
101548.48
101562.3
101575.77
101588.94
101601.9
101614.68
101627.35
101639.97
101652.56
101665.15
101677.76
101690.42
101703.11
101715.85
101728.62
101741.42
101754.24
101767.04
101779.81
101792.49
101805
101817.24
101829.07
101840.35
101850.96
101860.84
101869.82
101878.58
101025.57
101064.54
101103.86
101140.5
101175.23
101207.98
101238.91
101268.14
101295.77
101321.94
101346.73
101370.26
101392.59
101413.82
101434.02
101453.26
101471.61
101489.15
101505.95
101522.09
101537.64
101552.68
101567.28
101581.5
101595.43
101609.12
101622.63
101636.01
101649.32
101662.59
101675.82
101689.05
101702.3
101715.56
101728.83
101742.11
101755.39
101768.66
101781.9
101795.08
101808.15
101821.03
101833.63
101845.82
101857.45
101868.41
101878.62
101887.88
101896.93
100997.38
101037.67
101079.89
101119.8
101157.45
101192.71
101225.81
101256.95
101286.33
101314.1
101340.39
101365.3
101388.95
101411.42
101432.8
101453.17
101472.61
101491.2
101509.02
101526.15
101542.67
101558.65
101574.17
101589.3
101604.11
101618.65
101633
101647.18
101661.24
101675.26
101689.19
101703.08
101716.95
101730.8
101744.63
101758.44
101772.21
101785.95
101799.62
101813.2
101826.65
101839.89
101852.83
101865.35
101877.34
101888.65
101899.22
101908.79
101918.18
100968.04
101008.19
101051.36
101093.48
101133.93
101172.35
101208.63
101242.73
101274.73
101304.8
101333.11
101359.81
101385.08
101409.04
101431.81
101453.52
101474.25
101494.1
101513.16
101531.51
101549.22
101566.37
101583.02
101599.25
101615.12
101630.69
101646.02
101661.13
101676.07
101690.95
101705.65
101720.27
101734.84
101749.33
101763.77
101778.14
101792.44
101806.67
101820.8
101834.8
101848.64
101862.23
101875.52
101888.38
101900.73
101912.44
101923.47
101933.57
101944.02
100928.51
100973.33
101020.19
101065.16
101107.39
101147.43
101185.62
101222.1
101256.87
101289.9
101321.21
101350.85
101378.89
101405.44
101430.61
101454.51
101477.25
101498.95
101519.72
101539.64
101558.84
101577.38
101595.36
101612.85
101629.92
101646.62
101663.03
101679.16
101695.07
101710.83
101726.4
101741.83
101757.14
101772.33
101787.42
101802.4
101817.27
101832.03
101846.67
101861.15
101875.46
101889.53
101903.31
101916.71
101929.61
101941.86
101953.24
101963.2
101972.89
100868.1
100919.54
100973.7
101026.01
101074.23
101118.73
101160.12
101198.89
101235.45
101270.11
101303.11
101334.61
101364.73
101393.55
101421.13
101447.54
101472.84
101497.11
101520.4
101542.8
101564.37
101585.2
101605.35
101624.9
101643.91
101662.45
101680.57
101698.32
101715.74
101732.88
101749.75
101766.38
101782.81
101799.04
101815.09
101830.96
101846.64
101862.12
101877.38
101892.35
101906.98
101921.15
101934.72
101947.46
101959.09
101969.23
101977.4
101983.23
101988.45
100783.35
100842.81
100904.95
100965.56
101021.85
101074.11
101122.84
101168.31
101210.8
101250.55
101287.84
101322.93
101356.05
101387.45
101417.3
101445.79
101473.05
101499.22
101524.4
101548.68
101572.14
101594.84
101616.85
101638.22
101659.01
101679.25
101698.98
101718.25
101737.08
101755.51
101773.57
101791.26
101808.58
101825.53
101842.09
101858.24
101873.93
101889.13
101903.76
101917.75
101930.97
101943.32
101954.65
101964.83
101973.74
101981.28
101987.44
101992.92
102001.42
100670.64
100735.18
100803.3
100869.58
100930.88
100987.73
101040.8
101090.48
101137.09
101180.92
101222.23
101261.24
101298.18
101333.23
101366.56
101398.33
101428.68
101457.74
101485.63
101512.45
101538.3
101563.26
101587.4
101610.81
101633.53
101655.62
101677.13
101698.08
101718.51
101738.43
101757.86
101776.8
101795.24
101813.22
101830.71
101847.72
101864.24
101880.24
101895.72
101910.65
101925.03
101938.85
101952.11
101964.85
101977.1
101988.82
101999.96
102011.42
102027.2
100530.24
100617.39
100703.1
100785.76
100862.3
100933.11
100998.97
101060.37
101117.7
101171.32
101221.57
101268.74
101313.13
101354.96
101394.48
101431.87
101467.33
101501.01
101533.07
101563.64
101592.84
101620.77
101647.55
101673.26
101697.97
101721.76
101744.7
101766.84
101788.26
101808.98
101829.07
101848.58
101867.55
101886.02
101904
101921.53
101938.65
101955.39
101971.8
101987.93
102003.83
102019.57
102035.24
102050.95
102066.84
102083
102099.34
102116.61
102140.24
100296.44
100387.62
100476.74
100562.74
100641.96
100714.82
100782.49
100845.63
100904.76
100960.31
101012.66
101062.15
101109.07
101153.66
101196.15
101236.73
101275.6
101312.89
101348.76
101383.34
101416.73
101449.05
101480.39
101510.84
101540.49
101569.42
101597.71
101625.44
101652.67
101679.47
101705.9
101732.02
101757.88
101783.54
101809.05
101834.47
101859.85
101885.24
101910.68
101936.21
101961.88
101987.71
102013.7
102039.85
102066.16
102092.6
102118.67
102142.45
102165.29
101229.86
101268.66
101235.9
101233.24
101222.74
101212.79
101202.89
101192.68
101182.02
101170.85
101159.18
101147.01
101134.35
101121.2
101107.46
101092.87
101077.05
101059.51
101039.56
101015.25
100983.47
100948.1
100912.5
100864.32
100797.1
100703.37
100585.54
100424.06
100191.49
101214.01
101266.19
101223.81
101226.54
101213.08
101203.43
101193.37
101182.96
101172.17
101160.92
101149.17
101136.92
101124.18
101110.91
101096.96
101082.05
101065.72
101047.41
101026.31
101000.31
100967.98
100934.58
100897.25
100842.63
100768.55
100665
100539.48
100353.46
100120.93
101196.77
101262.27
101211.34
101219.41
101202.7
101194.06
101183.66
101173.07
101162.13
101150.73
101138.84
101126.44
101113.52
101100.02
101085.75
101070.37
101053.37
101034.1
101011.54
100983.47
100950.69
100918.14
100877.82
100817.7
100737.83
100625.09
100492.38
100281.04
100053.94
101181.41
101259.16
101200.06
101213.1
101193.16
101185.78
101174.71
101163.95
101152.78
101141.15
101129.04
101116.4
101103.21
101089.37
101074.66
101058.67
101040.85
101020.5
100996.29
100966.21
100933.14
100899.62
100855.14
100789.96
100704.8
100583.38
100443.95
100208.21
99989.858
101167.21
101256.61
101189.46
101207.43
101184.3
101178.31
101166.39
101155.58
101144.19
101132.35
101120.02
101107.15
101093.68
101079.49
101064.3
101047.69
101029.03
101007.56
100981.67
100950.04
100916.94
100881.35
100832.4
100762.32
100671.94
100542.09
100396.35
100138.01
99930.771
101153.35
101254.06
101179.09
101202.04
101175.74
101171.25
101158.43
101147.71
101136.1
101124.1
101111.59
101098.51
101084.79
101070.26
101054.62
101037.38
101017.92
100995.32
100967.78
100935.18
100902.08
100863.81
100810.57
100735.79
100640.28
100502.34
100350.85
100072.37
99878.105
101139.76
101251.45
101168.9
101196.85
101167.39
101164.51
101150.75
101140.23
101128.39
101116.27
101103.6
101090.35
101076.38
101061.52
101045.42
101027.58
101007.31
100983.57
100954.51
100921.51
100888.11
100846.83
100789.65
100710.44
100610.04
100464.53
100308.04
100012.41
99832.448
101126.56
101248.9
101159.02
101191.89
101159.3
101158.1
101143.37
101133.12
101121.05
101108.84
101096.03
101082.6
101068.39
101053.2
101036.65
101018.21
100997.15
100972.24
100941.89
100908.92
100874.75
100830.37
100769.6
100686.24
100581.26
100428.85
100268.27
99958.828
99793.86
101113.81
101246.45
101149.47
101187.17
101151.5
101152.03
101136.3
101126.39
101114.06
101101.81
101088.85
101075.25
101060.81
101045.29
101028.3
101009.26
100987.41
100961.34
100930.05
100897.33
100861.92
100814.51
100750.47
100663.22
100554.07
100395.53
100231.85
99911.985
99762.083
101101.48
101244.08
101140.23
101182.67
101143.96
101146.26
101129.52
101120
101107.41
101095.14
101082.04
101068.29
101053.62
101037.78
101020.35
101000.74
100978.11
100950.9
100919.08
100886.6
100849.58
100799.34
100732.31
100641.46
100528.57
100364.72
100198.97
99871.975
99736.691
101089.53
101241.76
101131.27
101178.35
101136.68
101140.75
101123
101113.92
101101.07
101088.8
101075.58
101061.68
101046.79
101030.65
101012.8
100992.62
100969.21
100940.98
100909.02
100876.61
100837.75
100784.92
100715.16
100621.03
100504.87
100336.58
100169.78
99838.686
99717.155
101077.92
101239.49
101122.57
101174.2
101129.62
101135.48
101116.72
101108.13
101095.01
101082.78
101069.43
101055.41
101040.3
101023.87
101005.61
100984.9
100960.71
100931.62
100899.85
100867.24
100826.47
100771.29
100699.07
100601.97
100483.04
100311.2
100144.33
99811.837
99702.914
101066.64
101237.25
101114.13
101170.19
101122.79
101130.44
101110.69
101102.6
101089.23
101077.05
101063.59
101049.45
101034.14
101017.43
100998.79
100977.56
100952.61
100922.9
100891.53
100858.41
100815.77
100758.5
100684.07
100584.35
100463.16
100288.64
100122.6
99791.036
99693.422
101055.65
101235.05
101105.93
101166.33
101116.16
101125.6
101104.87
101097.33
101083.69
101071.6
101058.02
101043.78
101028.29
101011.32
100992.31
100970.59
100944.92
100914.87
100883.98
100850.09
100805.7
100746.58
100670.17
100568.2
100445.27
100268.91
100104.53
99775.83
99688.179
101044.94
101232.88
101097.95
101162.59
101109.73
101120.96
101099.27
101092.28
101078.4
101066.4
101052.73
101038.4
101022.74
101005.52
100986.17
100963.98
100937.66
100907.57
100877.1
100842.25
100796.29
100735.54
100657.41
100553.56
100429.4
100252.01
100090.01
99765.742
99686.75
101034.47
101230.72
101090.17
101158.96
101103.48
101116.5
101093.86
101087.46
101073.33
101061.45
101047.69
101033.3
101017.48
101000.04
100980.37
100957.72
100930.87
100901
100870.82
100834.91
100787.56
100725.4
100645.81
100540.45
100415.56
100237.9
100078.88
99760.302
99688.762
101024.23
101228.58
101082.58
101155.43
101097.4
101112.2
101088.64
101082.83
101068.48
101056.73
101042.89
101028.46
101012.5
100994.85
100974.9
100951.83
100924.58
100895.14
100865.07
100828.09
100779.54
100716.16
100635.38
100528.89
100403.75
100226.51
100071.01
99759.061
99693.905
101014.19
101226.45
101075.17
101152.01
101091.48
101108.06
101083.61
101078.41
101063.84
101052.24
101038.34
101023.87
101007.79
100989.96
100969.75
100946.29
100918.83
100889.97
100859.8
100821.81
100772.25
100707.85
100626.13
100518.88
100393.95
100217.75
100066.21
99761.608
99701.927
101004.32
101224.32
101067.92
101148.67
101085.72
101104.07
101078.74
101074.17
101059.4
101047.97
101034.02
101019.53
101003.35
100985.37
100964.92
100941.12
100913.66
100885.41
100854.99
100816.09
100765.7
100700.48
100618.08
100510.43
100386.14
100211.56
100064.32
99767.572
99712.627
100994.61
101222.2
101060.82
101145.42
101080.1
101100.22
101074.05
101070.11
101055.16
101043.9
101029.92
101015.44
100999.17
100981.07
100960.41
100936.35
100909.08
100881.43
100850.63
100810.94
100759.9
100694.04
100611.23
100503.52
100380.28
100207.81
100065.18
99776.626
99725.848
100985.04
101220.07
101053.86
101142.24
101074.63
101096.51
101069.51
101066.22
101051.1
101040.05
101026.05
101011.59
100995.26
100977.06
100956.23
100931.98
100905.11
100877.97
100846.73
100806.4
100754.87
100688.56
100605.58
100498.14
100376.32
100206.43
100068.64
99788.486
99741.472
100975.59
101217.95
101047.03
101139.15
101069.28
101092.93
101065.13
101062.5
101047.24
101036.39
101022.4
101007.98
100991.62
100973.34
100952.37
100928.05
100901.72
100874.98
100843.29
100802.48
100750.6
100684.03
100601.13
100494.28
100374.22
100207.29
100074.54
99802.91
99759.413
100966.24
101215.81
101040.32
101136.12
101064.05
101089.48
101060.9
101058.95
101043.56
101032.94
101018.97
101004.62
100988.23
100969.92
100948.85
100924.58
100898.9
100872.44
100840.34
100799.19
100747.1
100680.47
100597.88
100491.92
100373.93
100210.3
100082.76
99819.691
99779.61
100956.97
101213.67
101033.73
101133.17
101058.95
101086.16
101056.82
101055.56
101040.06
101029.69
101015.76
101001.49
100985.12
100966.79
100945.67
100921.6
100896.61
100870.33
100837.89
100796.54
100744.39
100677.86
100595.82
100491.02
100375.4
100215.37
100093.17
99838.65
99802.013
100947.77
101211.53
101027.24
101130.3
101053.96
101082.97
101052.89
101052.34
101036.75
101026.64
101012.78
100998.62
100982.28
100963.97
100942.85
100919.11
100894.84
100868.64
100835.97
100794.55
100742.47
100676.23
100594.94
100491.56
100378.56
100222.38
100105.64
99859.632
99826.581
100938.63
101209.37
101020.85
101127.49
101049.09
101079.91
101049.11
101049.3
101033.64
101023.8
101010.03
100996
100979.73
100961.46
100940.4
100917.14
100893.55
100867.39
100834.58
100793.23
100741.34
100675.56
100595.24
100493.51
100383.37
100231.26
100120.06
99882.497
99853.264
100929.53
101207.21
101014.55
101124.76
101044.33
101076.99
101045.47
101046.42
101030.71
101021.17
101007.52
100993.63
100977.45
100959.27
100938.36
100915.68
100892.71
100866.58
100833.76
100792.58
100741.02
100675.85
100596.69
100496.84
100389.76
100241.89
100136.33
99907.117
99882.008
100920.47
101205.05
101008.35
101122.12
101039.67
101074.21
101041.98
101043.73
101027.98
101018.76
101005.25
100991.54
100975.48
100957.41
100936.73
100914.73
100892.31
100866.23
100833.51
100792.61
100741.5
100677.11
100599.29
100501.51
100397.68
100254.21
100154.35
99933.371
99912.733
100911.44
101202.88
101002.24
101119.57
101035.12
101071.6
101038.64
101041.24
101025.45
101016.59
101003.24
100989.72
100973.81
100955.91
100935.55
100914.28
100892.35
100866.36
100833.87
100793.34
100742.81
100679.34
100603.02
100507.5
100407.09
100268.1
100173.99
99961.142
99945.175
100902.44
101200.72
100996.22
101117.12
101030.68
101069.16
101035.44
101038.95
101023.14
101014.66
101001.49
100988.19
100972.46
100954.77
100934.84
100914.32
100892.83
100867.01
100834.83
100794.79
100744.94
100682.53
100607.88
100514.77
100417.92
100283.5
100195.17
99990.299
99978.433
100893.46
101198.58
100990.29
101114.79
101026.33
101066.91
101032.4
101036.9
101021.05
101012.99
101000.02
100986.97
100971.46
100954.02
100934.6
100914.85
100893.76
100868.18
100836.43
100796.95
100747.91
100686.69
100613.85
100523.28
100430.12
100300.3
100217.8
100020.68
100012.7
100884.5
101196.47
100984.44
101112.61
101022.09
101064.9
101029.51
101035.1
101019.19
101011.6
100998.85
100986.08
100970.81
100953.68
100934.87
100915.87
100895.17
100869.93
100838.69
100799.86
100751.72
100691.82
100620.93
100533.03
100443.66
100318.44
100241.78
100052.08
100048.62
100875.56
101194.42
100978.67
101110.62
101017.94
101063.14
101026.78
101033.59
101017.57
101010.51
100997.99
100985.53
100970.53
100953.79
100935.66
100917.39
100897.08
100872.26
100841.61
100803.51
100756.39
100697.91
100629.1
100543.95
100458.47
100337.81
100267.01
100084.28
100085.97
100866.64
101192.49
100972.96
101108.88
101013.86
101061.71
101024.19
101032.43
101016.19
101009.77
100997.46
100985.35
100970.66
100954.37
100936.98
100919.42
100899.54
100875.22
100845.22
100807.92
100761.9
100704.94
100638.31
100555.98
100474.48
100358.31
100293.39
100117.05
100124.38
100857.75
101190.74
100967.29
101107.45
101009.84
101060.68
101021.73
101031.66
101015.07
101009.42
100997.28
100985.58
100971.21
100955.46
100938.85
100921.98
100902.58
100878.86
100849.57
100813.15
100768.33
100712.98
100648.66
100569.22
100491.79
100379.99
100320.94
100150.56
100163.56
100848.88
101189.28
100961.6
101106.47
101005.82
101060.16
101019.36
101031.39
101014.18
101009.52
100997.47
100986.26
100972.22
100957.09
100941.31
100925.13
100906.3
100883.3
100854.88
100819.52
100776.09
100722.53
100660.72
100584.23
100510.97
100403.33
100350.03
100185.48
100203.28
100840
101188.3
100955.81
101106.11
101001.72
101060.3
101017.02
101031.74
101013.48
101010.17
100998.01
100987.45
100973.71
100959.32
100944.37
100928.9
100910.69
100888.49
100861.01
100826.82
100784.93
100733.26
100674.04
100600.41
100531.24
100427.37
100379.62
100220.1
100243.28
100831.07
101188.14
100949.74
101106.66
100997.4
101061.35
101014.58
101032.94
101012.87
101011.53
100998.88
100989.24
100975.73
100962.24
100948.03
100933.03
100914.93
100892.73
100865.2
100831.06
100789.59
100738.72
100681.19
100609.67
100544.24
100444.04
100402.39
100248.04
100278.42
100821.76
101189.32
100943.03
101108.57
100992.6
101063.72
101011.8
101035.33
101012.16
101013.89
100999.99
100991.88
100978.34
100965.99
100952.26
100937.3
100918.38
100894.8
100865.48
100829.44
100786.52
100734.72
100677.95
100607.79
100546.86
100450.53
100416.62
100267.61
100306.16
100816.15
101192.59
100937.72
101111.36
100988.5
101066.7
101009.13
101038.32
101011.12
101016.65
101000.43
100994.13
100979.44
100968.3
100956.14
100945
100931.33
100914.51
100892.89
100865.04
100830.72
100786.9
100738.6
100674.32
100620.81
100526.16
100495.9
100346.04
100387.1
100813.12
101193.38
100935.81
101112.47
100987.32
101067.87
101008.48
101039.4
101011.01
101017.64
101000.85
100995.25
100980.57
100969.89
100957.32
100945.27
100930.25
100912.11
100889.3
100860.42
100825.34
100780.67
100731.97
100666.62
100613.19
100517.05
100487.78
100337.98
100382.95
100811.17
101193.7
100934.6
101112.99
100986.65
101068.5
101008.22
101040.07
101011.17
101018.35
101001.36
100996.13
100981.51
100971.17
100958.46
100945.92
100930.02
100910.87
100887.02
100857.13
100821.22
100775.72
100726.54
100660.37
100606.91
100509.92
100481.07
100330.75
100376.15
100809.87
101193.91
100933.73
101113.26
100986.16
101068.91
101008.09
101040.57
101011.38
101018.96
101001.85
100996.88
100982.28
100972.24
100959.62
100947.07
100930.92
100911.39
100887.05
100856.65
100820.33
100774.43
100725.13
100658.75
100605.59
100508.71
100480.26
100330.21
100375.25
100808.93
101194.04
100933.1
101113.43
100985.84
101069.22
101008.05
101041.01
101011.62
101019.54
101002.34
100997.59
100983
100973.25
100960.77
100948.38
100932.26
100912.67
100888.21
100857.66
100821.25
100775.29
100726.18
100660.03
100607.42
100511.39
100483.41
100334.77
100379.72
100808.26
101194.03
100932.68
101113.51
100985.67
101069.46
101008.1
101041.4
101011.89
101020.07
101002.82
100998.27
100983.74
100974.26
100961.94
100949.72
100933.7
100914.2
100889.8
100859.29
100823.01
100777.21
100728.51
100662.9
100611.01
100516.39
100488.9
100342.78
100387.81
100807.83
101193.92
100932.44
101113.51
100985.62
101069.62
101008.22
101041.74
101012.2
101020.58
101003.32
100998.96
100984.49
100975.31
100963.14
100951.1
100935.2
100915.84
100891.57
100861.22
100825.19
100779.73
100731.57
100666.78
100615.74
100523.07
100496.08
100353.53
100398.65
100807.64
101193.72
100932.35
101113.44
100985.66
101069.74
101008.39
101042.05
101012.53
101021.09
101003.83
100999.66
100985.29
100976.41
100964.4
100952.55
100936.79
100917.58
100893.49
100863.36
100827.68
100782.69
100735.22
100671.52
100621.47
100531.35
100504.93
100366.97
100412.26
100807.63
101193.47
100932.35
101113.34
100985.75
101069.85
101008.6
101042.37
101012.88
101021.6
101004.36
101000.38
100986.12
100977.58
100965.75
100954.1
100938.48
100919.45
100895.57
100865.74
100830.48
100786.1
100739.46
100677.15
100628.28
100541.33
100515.61
100383.21
100428.94
100807.76
101193.2
100932.43
101113.23
100985.89
101069.95
101008.83
101042.69
101013.25
101022.13
101004.92
101001.14
100987.01
100978.82
100967.19
100955.77
100940.32
100921.5
100897.87
100868.38
100833.63
100790.02
100744.37
100683.76
100636.28
100553.09
100528.36
100402.32
100449.02
100808
101192.95
100932.54
101113.15
100986.03
101070.07
101009.07
101043.03
101013.63
101022.69
101005.5
101001.93
100987.97
100980.15
100968.74
100957.57
100942.31
100923.73
100900.4
100871.34
100837.2
100794.5
100750.02
100691.42
100645.6
100566.68
100543.37
100424.27
100472.65
100808.31
101192.74
100932.65
101113.1
100986.17
101070.22
101009.3
101043.4
101014.02
101023.28
101006.1
101002.78
100988.99
100981.59
100970.41
100959.5
100944.48
100926.17
100903.2
100874.64
100841.21
100799.58
100756.44
100700.13
100656.29
100582
100560.69
100448.88
100499.75
100808.64
101192.6
100932.76
101113.09
100986.29
101070.42
101009.53
101043.82
101014.42
101023.91
101006.73
101003.69
100990.09
100983.11
100972.18
100961.58
100946.8
100928.82
100906.25
100878.28
100845.66
100805.24
100763.63
100709.82
100668.29
100598.85
100580.14
100475.81
100529.93
100808.95
101192.53
100932.84
101113.14
100986.39
101070.65
101009.75
101044.26
101014.83
101024.58
101007.39
101004.64
100991.24
100984.73
100974.06
100963.78
100949.28