/*--------------------------------*- C++ -*----------------------------------*\
| =========                 |                                                 |
| \\      /  F ield         | OpenFOAM: The Open Source CFD Toolbox           |
|  \\    /   O peration     | Version:  2206                                  |
|   \\  /    A nd           | Website:  www.openfoam.com                      |
|    \\/     M anipulation  |                                                 |
\*---------------------------------------------------------------------------*/
FoamFile
{
    version     2.0;
    format      ascii;
    arch        "LSB;label=32;scalar=64";
    class       volScalarField;
    location    "0";
    object      pMean;
}
// * * * * * * * * * * * * * * * * * * * * * * * * * * * * * * * * * * * * * //

dimensions      [1 -1 -2 0 0 0 0];

internalField   nonuniform List<scalar> 
19794
(
101227.4
101242.06
101257.92
101274.59
101291.17
101307.36
101323.02
101338.08
101352.55
101366.44
101379.76
101392.53
101404.81
101416.62
101428.02
101439.05
101449.74
101460.14
101470.27
101480.16
101489.85
101499.37
101508.74
101517.99
101527.14
101536.22
101545.24
101554.23
101563.2
101572.16
101581.15
101590.17
101599.27
101608.46
101617.78
101627.25
101636.91
101646.78
101656.88
101667.22
101677.78
101688.51
101699.33
101710.07
101720.5
101730.24
101738.82
101745.12
101749.87
101264.79
101270.11
101277.3
101287.11
101298.32
101310.58
101323.45
101336.6
101349.82
101362.92
101375.85
101388.52
101400.91
101412.99
101424.76
101436.21
101447.35
101458.19
101468.75
101479.05
101489.1
101498.95
101508.6
101518.08
101527.41
101536.61
101545.71
101554.73
101563.67
101572.53
101581.32
101590.03
101598.64
101607.13
101615.46
101623.59
101631.46
101638.99
101646.09
101652.64
101658.46
101663.33
101666.93
101668.83
101668.56
101665.41
101658.67
101645.3
101626.5
101244.35
101258.8
101271.26
101284.09
101296.85
101309.72
101322.64
101335.58
101348.47
101361.27
101373.92
101386.4
101398.66
101410.7
101422.51
101434.07
101445.39
101456.47
101467.3
101477.91
101488.29
101498.46
101508.42
101518.18
101527.76
101537.16
101546.38
101555.43
101564.31
101573.02
101581.53
101589.84
101597.94
101605.81
101613.41
101620.72
101627.7
101634.31
101640.48
101646.13
101651.17
101655.51
101659.1
101661.88
101663.82
101664.77
101664.96
101663.6
101668.67
101242.24
101254.61
101267.29
101280.83
101294.42
101308.06
101321.6
101335.01
101348.25
101361.28
101374.08
101386.64
101398.94
101411
101422.8
101434.36
101445.68
101456.77
101467.63
101478.26
101488.69
101498.91
101508.93
101518.77
101528.41
101537.87
101547.13
101556.22
101565.12
101573.83
101582.33
101590.63
101598.72
101606.6
101614.26
101621.69
101628.88
101635.81
101642.45
101648.77
101654.72
101660.22
101665.17
101669.42
101672.81
101675.02
101676.16
101674.84
101672.88
101237.22
101251.27
101264.66
101278.59
101292.59
101306.64
101320.58
101334.36
101347.93
101361.23
101374.27
101387.02
101399.47
101411.65
101423.54
101435.16
101446.52
101457.63
101468.5
101479.14
101489.57
101499.79
101509.81
101519.65
101529.3
101538.78
101548.07
101557.2
101566.15
101574.94
101583.55
101591.98
101600.23
101608.3
101616.18
101623.86
101631.32
101638.55
101645.51
101652.16
101658.43
101664.23
101669.43
101673.85
101677.3
101679.47
101680.43
101679.22
101679.26
101231.18
101246.72
101261.38
101276.07
101290.61
101305.08
101319.36
101333.43
101347.24
101360.77
101374.01
101386.94
101399.57
101411.88
101423.91
101435.65
101447.11
101458.31
101469.26
101479.98
101490.46
101500.74
101510.81
101520.69
101530.39
101539.91
101549.26
101558.44
101567.47
101576.34
101585.03
101593.56
101601.92
101610.1
101618.08
101625.87
101633.44
101640.76
101647.79
101654.49
101660.78
101666.59
101671.8
101676.28
101679.94
101682.58
101684.37
101684.84
101686.76
101224.95
101241.58
101257.37
101272.92
101288.15
101303.13
101317.83
101332.24
101346.34
101360.12
101373.57
101386.69
101399.49
101411.97
101424.14
101436.01
101447.6
101458.93
101469.99
101480.81
101491.4
101501.77
101511.94
101521.9
101531.68
101541.28
101550.7
101559.96
101569.06
101577.99
101586.76
101595.37
101603.79
101612.04
101620.09
101627.94
101635.58
101642.96
101650.07
101656.86
101663.27
101669.23
101674.68
101679.51
101683.66
101687.02
101689.79
101691.62
101694.55
101218.42
101236.09
101252.93
101269.31
101285.25
101300.82
101316.01
101330.83
101345.29
101359.37
101373.08
101386.43
101399.43
101412.1
101424.44
101436.47
101448.2
101459.66
101470.85
101481.8
101492.5
101502.98
101513.26
101523.32
101533.2
101542.89
101552.4
101561.74
101570.93
101579.96
101588.81
101597.49
101606
101614.33
101622.48
101630.44
101638.18
101645.69
101652.94
101659.9
101666.53
101672.76
101678.53
101683.77
101688.44
101692.44
101695.94
101698.7
101702.33
101211.48
101230.21
101248.09
101265.31
101281.98
101298.17
101313.9
101329.18
101344.04
101358.47
101372.5
101386.13
101399.37
101412.26
101424.8
101437.02
101448.92
101460.54
101471.87
101482.96
101493.79
101504.4
101514.79
101524.97
101534.96
101544.76
101554.38
101563.82
101573.11
101582.24
101591.2
101599.99
101608.61
101617.06
101625.34
101633.42
101641.31
101648.98
101656.41
101663.57
101670.42
101676.93
101683.02
101688.64
101693.75
101698.3
101702.42
101705.95
101710.26
101204.08
101223.85
101242.79
101260.88
101278.33
101295.18
101311.48
101327.27
101342.57
101357.4
101371.78
101385.72
101399.26
101412.4
101425.18
101437.61
101449.72
101461.52
101473.03
101484.28
101495.27
101506.03
101516.56
101526.87
101536.99
101546.91
101556.65
101566.21
101575.63
101584.89
101593.97
101602.89
101611.65
101620.23
101628.65
101636.88
101644.93
101652.77
101660.39
101667.76
101674.84
101681.6
101688
101693.99
101699.54
101704.61
101709.33
101713.57
101718.51
101196.15
101216.97
101236.98
101255.98
101274.24
101291.8
101308.74
101325.08
101340.87
101356.14
101370.91
101385.22
101399.08
101412.52
101425.57
101438.25
101450.59
101462.62
101474.33
101485.77
101496.94
101507.87
101518.56
101529.04
101539.31
101549.38
101559.26
101568.96
101578.52
101587.92
101597.15
101606.22
101615.12
101623.86
101632.43
101640.83
101649.06
101657.08
101664.9
101672.49
101679.82
101686.86
101693.58
101699.94
101705.93
101711.52
101716.81
101721.68
101727.17
101187.64
101209.52
101230.62
101250.57
101269.71
101288.03
101305.65
101322.6
101338.94
101354.69
101369.91
101384.61
101398.84
101412.62
101425.99
101438.96
101451.57
101463.84
101475.79
101487.45
101498.83
101509.96
101520.85
101531.5
101541.95
101552.19
101562.24
101572.11
101581.83
101591.4
101600.79
101610.02
101619.1
101628
101636.76
101645.34
101653.76
101662
101670.04
101677.87
101685.47
101692.8
101699.86
101706.6
101713.02
101719.1
101724.91
101730.33
101736.31
101178.45
101201.44
101223.67
101244.62
101264.68
101283.83
101302.19
101319.81
101336.75
101353.05
101368.76
101383.92
101398.56
101412.73
101426.44
101439.75
101452.66
101465.22
101477.45
101489.36
101500.99
101512.34
101523.45
101534.32
101544.97
101555.41
101565.65
101575.7
101585.62
101595.37
101604.96
101614.38
101623.64
101632.75
101641.7
101650.49
101659.13
101667.59
101675.87
101683.96
101691.84
101699.49
101706.88
101714.01
101720.85
101727.38
101733.68
101739.61
101746.04
101168.47
101192.64
101216.05
101238.08
101259.13
101279.17
101298.34
101316.7
101334.3
101351.21
101367.47
101383.14
101398.25
101412.85
101426.97
101440.65
101453.91
101466.8
101479.34
101491.54
101503.45
101515.07
101526.43
101537.54
101548.42
101559.09
101569.55
101579.82
101589.96
101599.92
101609.72
101619.36
101628.84
101638.16
101647.34
101656.36
101665.24
101673.94
101682.49
101690.85
101699.03
101707
101714.75
101722.25
101729.5
101736.48
101743.23
101749.63
101756.49
101157.57
101183.01
101207.7
101230.88
101253
101274.02
101294.07
101313.23
101331.57
101349.16
101366.04
101382.27
101397.92
101413
101427.58
101441.68
101455.35
101468.61
101481.5
101494.04
101506.27
101518.19
101529.84
101541.23
101552.39
101563.32
101574.03
101584.54
101594.93
101605.14
101615.18
101625.05
101634.78
101644.35
101653.78
101663.06
101672.19
101681.17
101689.99
101698.66
101707.15
101715.45
101723.55
101731.43
101739.08
101746.48
101753.68
101760.52
101767.78
101145.61
101172.42
101198.49
101222.94
101246.22
101268.31
101289.34
101309.39
101328.56
101346.89
101364.47
101381.35
101397.58
101413.22
101428.32
101442.9
101457.02
101470.71
101484.01
101496.94
101509.52
101521.8
101533.78
101545.49
101556.95
101568.18
101579.18
101589.97
101600.64
101611.12
101621.44
101631.6
101641.59
101651.44
101661.14
101670.7
101680.12
101689.4
101698.52
101707.5
101716.31
101724.96
101733.42
101741.68
101749.73
101757.54
101765.15
101772.42
101780.06
101132.39
101160.72
101188.31
101214.14
101238.71
101261.97
101284.1
101305.15
101325.22
101344.4
101362.76
101380.36
101397.27
101413.54
101429.22
101444.36
101459
101473.17
101486.93
101500.3
101513.3
101525.97
101538.34
101550.41
101562.23
101573.8
101585.13
101596.25
101607.23
101618.02
101628.65
101639.11
101649.42
101659.57
101669.58
101679.45
101689.18
101698.78
101708.23
101717.54
101726.7
101735.7
101744.52
101753.17
101761.61
101769.83
101777.84
101785.5
101793.51
101117.67
101147.7
101176.97
101204.36
101230.36
101254.94
101278.27
101300.44
101321.55
101341.69
101360.93
101379.35
101397.02
101414
101430.35
101446.12
101461.35
101476.08
101490.37
101504.24
101517.72
101530.85
101543.65
101556.15
101568.36
101580.32
101592.03
101603.51
101614.85
101626.01
101636.99
101647.8
101658.44
101668.94
101679.29
101689.5
101699.58
101709.52
101719.32
101728.98
101738.5
101747.87
101757.07
101766.1
101774.93
101783.54
101791.94
101799.98
101808.33
101101.17
101133.1
101164.26
101193.39
101221.01
101247.08
101271.79
101295.22
101317.5
101338.72
101358.97
101378.32
101396.87
101414.66
101431.77
101448.26
101464.17
101479.55
101494.44
101508.88
101522.91
101536.57
101549.87
101562.85
101575.53
101587.93
101600.07
101611.98
101623.72
101635.29
101646.66
101657.86
101668.9
101679.77
101690.51
101701.09
101711.54
101721.86
101732.04
101742.08
101751.98
101761.74
101771.32
101780.73
101789.95
101798.94
101807.7
101816.1
101824.78
101082.43
101116.55
101149.87
101181.01
101210.48
101238.25
101264.53
101289.41
101313.03
101335.48
101356.88
101377.31
101396.86
101415.59
101433.59
101450.9
101467.59
101483.71
101499.3
101514.41
101529.08
101543.33
101557.21
101570.74
101583.96
101596.88
101609.52
101621.9
101634.11
101646.14
101657.97
101669.61
101681.08
101692.39
101703.54
101714.54
101725.41
101736.13
101746.72
101757.17
101767.47
101777.62
101787.6
101797.39
101806.99
101816.34
101825.45
101834.18
101843.14
101060.67
101097.44
101133.35
101166.86
101198.47
101228.23
101256.32
101282.88
101308.05
101331.95
101354.68
101376.35
101397.06
101416.88
101435.9
101454.17
101471.77
101488.75
101505.15
101521.03
101536.43
101551.39
101565.94
101580.12
101593.95
101607.46
101620.67
101633.61
101646.36
101658.92
101671.26
101683.41
101695.37
101707.16
101718.78
101730.25
101741.57
101752.74
101763.77
101774.65
101785.37
101795.93
101806.31
101816.5
101826.47
101836.16
101845.58
101854.59
101863.8
101035.74
101074.82
101113.72
101150.24
101184.53
101216.68
101246.92
101275.44
101302.43
101328.01
101352.32
101375.46
101397.54
101418.65
101438.88
101458.29
101476.96
101494.94
101512.3
101529.09
101545.35
101561.13
101576.46
101591.39
101605.94
101620.14
101634.01
101647.59
101660.94
101674.12
101687.05
101699.77
101712.28
101724.62
101736.77
101748.75
101760.58
101772.24
101783.74
101795.08
101806.26
101817.25
101828.03
101838.61
101848.93
101858.95
101868.64
101877.86
101887.23
101009.48
101049.46
101090.25
101129.55
101166.89
101202.11
101235.26
101266.43
101295.78
101323.48
101349.7
101374.59
101398.28
101420.89
101442.52
101463.26
101483.19
101502.36
101520.86
101538.73
101556.02
101572.78
101589.06
101604.88
101620.29
101635.31
101649.98
101664.3
101678.38
101692.28
101705.89
101719.27
101732.43
101745.39
101758.15
101770.72
101783.1
101795.3
101807.32
101819.16
101830.8
101842.23
101853.43
101864.37
101875.01
101885.32
101895.24
101904.64
101914.34
100977.56
101020.99
101064.63
101106.5
101146.06
101183.58
101219.3
101253.26
101285.5
101316.07
101345.04
101372.51
101398.59
101423.38
101447.02
101469.58
101491.18
101511.9
101531.82
101551.02
101569.55
101587.48
101604.85
101621.71
101638.11
101654.08
101669.64
101684.83
101699.71
101714.42
101728.81
101742.94
101756.84
101770.49
101783.92
101797.13
101810.13
101822.92
101835.49
101847.84
101859.97
101871.85
101883.47
101894.77
101905.72
101916.24
101926.22
101935.44
101944.85
100930.77
100979.8
101029.34
101076.89
101120.97
101161.99
101200.45
101236.73
101271.13
101303.83
101335.01
101364.78
101393.22
101420.41
101446.44
101471.35
101495.23
101518.14
101540.16
101561.33
101581.75
101601.45
101620.5
101638.94
101656.83
101674.2
101691.09
101707.53
101723.59
101739.38
101754.84
101769.99
101784.84
101799.4
101813.69
101827.7
101841.44
101854.89
101868.05
101880.9
101893.38
101905.46
101917.06
101928.07
101938.35
101947.68
101955.82
101962.64
101969.44
100864.7
100921.09
100977.91
101032.87
101083.91
101131.34
101175.63
101217.11
101256.04
101292.67
101327.22
101359.93
101390.99
101420.57
101448.81
101475.83
101501.75
101526.65
101550.6
101573.68
101595.93
101617.42
101638.19
101658.29
101677.75
101696.61
101714.9
101732.64
101749.89
101766.77
101783.31
101799.43
101815.13
101830.42
101845.29
101859.73
101873.72
101887.24
101900.25
101912.7
101924.52
101935.64
101945.99
101955.47
101963.99
101971.46
101977.83
101983.64
101991.45
100774.84
100836.46
100899.17
100959.92
101016.16
101068.3
101116.99
101162.62
101205.51
101245.92
101284.09
101320.23
101354.53
101387.16
101418.25
101447.95
101476.37
101503.62
101529.79
101554.98
101579.24
101602.67
101625.3
101647.21
101668.43
101688.99
101708.93
101728.26
101747.04
101765.35
101783.24
101800.65
101817.56
101833.98
101849.9
101865.31
101880.21
101894.58
101908.41
101921.68
101934.36
101946.44
101957.9
101968.76
101979
101988.56
101997.37
102006.16
102017.83
100666.31
100746.52
100824.99
100900.34
100969.85
101033.99
101093.59
101149.15
101201.07
101249.69
101295.34
101338.29
101378.78
101417.03
101453.24
101487.58
101520.21
101551.25
101580.85
101609.1
101636.1
101661.95
101686.72
101710.49
101733.31
101755.25
101776.35
101796.65
101816.23
101835.18
101853.61
101871.51
101888.84
101905.59
101921.79
101937.47
101952.64
101967.32
101981.53
101995.3
102008.65
102021.63
102034.26
102046.64
102058.83
102070.89
102082.7
102094.87
102111.72
100467.53
100554.48
100638.47
100719.46
100793.4
100861.1
100923.78
100982.13
101036.64
101087.78
101135.91
101181.36
101224.4
101265.27
101304.18
101341.31
101376.82
101410.85
101443.54
101474.99
101505.3
101534.57
101562.88
101590.3
101616.91
101642.77
101667.94
101692.49
101716.48
101740.01
101763.23
101786.15
101808.71
101830.94
101852.89
101874.57
101896.04
101917.31
101938.42
101959.36
101980.17
102000.82
102021.32
102041.61
102061.68
102081.5
102100.57
102117.16
102132.52
101224.7
101272.06
101234.68
101238.74
101227.95
101220.92
101213.38
101205.64
101197.6
101189.15
101180.18
101170.61
101160.28
101149.08
101136.84
101123.37
101108.44
101091.76
101073
101051.24
101024.5
100993.63
100961.95
100922.42
100868.29
100792.81
100695.71
100567.45
100364.6
101212.13
101271.53
101225.4
101235.04
101220.73
101214.63
101206.57
101198.53
101190.16
101181.35
101171.99
101161.97
101151.14
101139.36
101126.46
101112.22
101096.39
101078.65
101058.58
101035.13
101006.85
100975.95
100942.93
100898.62
100838.83
100755.05
100650.59
100501.04
100294.4
101198.83
101269.41
101216.03
101230.72
101213.04
101208.34
101199.51
101191.29
101182.61
101173.45
101163.7
101153.23
101141.89
101129.54
101115.96
101100.95
101084.2
101065.38
101043.97
101018.74
100989.13
100958.07
100922.93
100874.16
100809.19
100717.21
100605.49
100433.66
100227.62
101187.54
101267.58
101207.78
101226.78
101205.99
101202.71
101192.91
101184.59
101175.54
101166.01
101155.85
101144.92
101133.06
101120.11
101105.85
101090.04
101072.36
101052.44
101029.63
101002.63
100971.9
100939.89
100901.66
100848.39
100778.34
100678.22
100559.36
100365.73
100162.97
101177.37
101265.95
101200.13
101223.13
101199.42
101197.55
101186.68
101178.38
101168.93
101159.06
101148.5
101137.12
101124.75
101111.22
101096.29
101079.7
101061.11
101040.09
101015.88
100987.27
100955.72
100922.2
100880.49
100822.73
100747.59
100639.43
100513.69
100299.6
100102.19
101167.55
101264.19
101192.7
101219.52
101193.06
101192.6
101180.66
101172.46
101162.62
101152.45
101141.51
101129.71
101116.86
101102.77
101087.19
101069.84
101050.36
101028.27
101002.67
100972.72
100940.54
100905.13
100859.93
100797.79
100717.65
100601.68
100469.52
100236.95
100046.69
101157.98
101262.29
101185.46
101215.94
101186.86
101187.8
101174.81
101166.79
101156.53
101146.1
101134.81
101122.61
101109.29
101094.67
101078.46
101060.37
101040.03
101016.89
100989.94
100958.96
100926.16
100888.59
100840.02
100773.7
100688.72
100565.37
100427.44
100178.82
99997.161
101148.73
101260.37
101178.47
101212.42
101180.86
101183.19
101169.14
101161.36
101150.66
101140.01
101128.37
101115.78
101102.02
101086.87
101070.07
101051.28
101030.09
101005.92
100977.73
100946
100912.43
100872.54
100820.8
100750.47
100660.92
100530.71
100387.82
100125.86
99953.77
101139.82
101258.47
101171.72
101209
101175.07
101178.74
101163.66
101156.15
101145.01
101134.16
101122.18
101109.24
101095.05
101079.4
101062.01
101042.54
101020.55
100995.36
100966.07
100933.82
100899.29
100857.04
100802.31
100728.19
100634.36
100497.92
100350.96
100078.43
99916.407
101131.22
101256.58
101165.2
101205.66
101169.46
101174.45
101158.37
101151.14
101139.57
101128.55
101116.24
101102.95
101088.35
101072.23
101054.28
101034.15
101011.38
100985.22
100955.02
100922.38
100886.7
100842.14
100784.61
100706.92
100609.18
100467.2
100317.08
100036.71
99884.787
101122.89
101254.7
101158.88
101202.42
101164.04
101170.31
101153.25
101146.32
101134.32
101123.16
101110.53
101096.92
101081.93
101065.35
101046.86
101026.11
101002.6
100975.51
100944.61
100911.63
100874.65
100827.89
100767.75
100686.74
100585.48
100438.69
100286.35
100000.67
99858.521
101114.79
101252.83
101152.74
101199.24
101158.78
101166.29
101148.29
101141.68
101129.25
101117.97
101105.02
101091.12
101075.75
101058.74
101039.75
101018.4
100994.17
100966.24
100934.85
100901.51
100863.14
100814.33
100751.77
100667.71
100563.35
100412.51
100258.85
99970.117
99837.171
101106.9
101250.98
101146.78
101196.14
101153.67
101162.4
101143.48
101137.2
101124.34
101112.97
101099.73
101085.53
101069.81
101052.4
101032.93
101011.01
100986.11
100957.43
100925.74
100891.95
100852.2
100801.49
100736.71
100649.89
100542.88
100388.75
100234.6
99944.797
99820.293
101099.2
101249.14
101140.97
101193.1
101148.7
101158.62
101138.81
101132.86
101119.6
101108.15
101094.62
101080.17
101064.11
101046.31
101026.39
101003.95
100978.41
100949.12
100917.26
100882.94
100841.83
100789.4
100722.61
100633.33
100524.13
100367.45
100213.57
99924.364
99807.472
101091.68
101247.32
101135.3
101190.13
101143.85
101154.94
101134.28
101128.67
101115.01
101103.5
101089.69
101075
101058.63
101040.47
101020.13
100997.2
100971.06
100941.31
100909.38
100874.45
100832.08
100778.09
100709.49
100618.08
100507.14
100348.62
100195.7
99908.468
99798.335
101084.31
101245.5
101129.76
101187.22
101139.13
101151.36
101129.87
101124.6
101110.56
101099
101084.94
101070.03
101053.36
101034.87
101014.14
100990.76
100964.09
100934.03
100902.07
100866.48
100822.97
100767.58
100697.39
100604.17
100491.93
100332.26
100180.89
99896.745
99792.561
101077.06
101243.69
101124.34
101184.35
101134.52
101147.86
101125.57
101120.66
101106.25
101094.66
101080.35
101065.25
101048.31
101029.52
101008.43
100984.63
100957.49
100927.28
100895.3
100859.04
100814.49
100757.87
100686.32
100591.62
100478.53
100318.33
100169.03
99888.853
99789.882
101069.93
101241.89
101119.03
101181.53
101130.02
101144.45
101121.4
101116.83
101102.07
101090.47
101075.93
101060.65
101043.46
101024.39
101002.98
100978.81
100951.3
100921.06
100889.04
100852.13
100806.69
100749
100676.3
100580.45
100466.94
100306.79
100160
99884.463
99790.08
101062.9
101240.08
101113.81
101178.76
101125.6
101141.11
101117.32
101113.11
101098.02
101086.42
101071.67
101056.23
101038.82
101019.51
100997.81
100973.3
100945.51
100915.37
100883.27
100845.77
100799.56
100740.97
100667.36
100570.68
100457.15
100297.58
100153.67
99883.293
99792.98
101055.95
101238.28
101108.67
101176.03
101121.28
101137.85
101113.35
101109.49
101094.09
101082.51
101067.57
101052
101034.38
101014.85
100992.9
100968.1
100940.15
100910.18
100877.99
100839.97
100793.13
100733.78
100659.5
100562.31
100449.15
100290.63
100149.93
99885.085
99798.444
101049.07
101236.49
101103.61
101173.33
101117.03
101134.66
101109.47
101105.97
101090.28
101078.73
101063.62
101047.94
101030.14
101010.43
100988.26
100963.23
100935.23
100905.5
100873.2
100834.73
100787.39
100727.46
100652.74
100555.35
100442.9
100285.88
100148.65
99889.623
99806.374
101042.24
101234.69
101098.62
101170.67
101112.85
101131.54
101105.68
101102.55
101086.59
101075.09
101059.82
101044.05
101026.11
101006.24
100983.89
100958.69
100930.76
100901.29
100868.89
100830.08
100782.36
100722.02
100647.07
100549.78
100438.39
100283.26
100149.73
99896.72
99816.705
101035.44
101232.9
101093.68
101168.04
101108.75
101128.48
101101.98
101099.24
101083.01
101071.57
101056.18
101040.34
101022.28
101002.29
100979.8
100954.49
100926.74
100897.56
100865.07
100826.03
100778.05
100717.45
100642.51
100545.59
100435.58
100282.7
100153.06
99906.229
99829.418
101028.67
101231.1
101088.79
101165.45
101104.71
101125.48
101098.37
101096.01
101079.55
101068.19
101052.69
101036.81
101018.65
100998.58
100975.99
100950.65
100923.18
100894.29
100861.75
100822.57
100774.46
100713.78
100639.05
100542.79
100434.44
100284.11
100158.54
99918.026
99844.436
101021.91
101229.31
101083.94
101162.88
101100.72
101122.56
101094.84
101092.88
101076.21
101064.94
101049.36
101033.46
101015.24
100995.11
100972.46
100947.19
100920.08
100891.48
100858.95
100819.72
100771.6
100710.99
100636.7
100541.34
100434.92
100287.43
100166.09
99931.99
99861.351
101015.16
101227.51
101079.12
101160.35
101096.79
101119.69
101091.38
101089.85
101072.98
101061.83
101046.18
101030.29
101012.04
100991.89
100969.25
100944.12
100917.44
100889.14
100856.67
100817.5
100769.48
100709.11
100635.45
100541.24
100437.01
100292.6
100175.61
99948.005
99880.387
101008.38
101225.72
101074.33
101157.85
101092.91
101116.9
101088.02
101086.93
101069.87
101058.86
101043.18
101027.32
101009.06
100988.94
100966.34
100941.45
100915.25
100887.26
100854.92
100815.9
100768.1
100708.14
100635.31
100542.48
100440.65
100299.53
100187.02
99966.071
99901.478
101001.58
101223.94
101069.56
101155.4
101089.07
101114.18
101084.73
101084.11
101066.88
101056.03
101040.34
101024.54
101006.32
100986.25
100963.75
100939.2
100913.53
100885.85
100853.73
100814.95
100767.49
100708.07
100636.26
100545.02
100445.8
100308.17
100200.25
99986.27
99924.288
100994.74
101222.17
101064.79
101152.99
101085.28
101111.55
101081.52
101081.4
101064.02
101053.36
101037.68
101021.96
101003.81
100983.85
100961.51
100937.39
100912.26
100884.93
100853.09
100814.65
100767.64
100708.93
100638.32
100548.85
100452.44
100318.45
100215.25
100008.19
99949.091
100987.85
101220.42
101060.02
101150.64
101081.52
101109.01
101078.4
101078.83
101061.29
101050.86
101035.2
101019.62
101001.56
100981.74
100959.64
100936.02
100911.47
100884.51
100853.04
100815.02
100768.58
100710.7
100641.46
100553.96
100460.52
100330.3
100231.92
100031.75
99975.759
100980.9
101218.71
101055.24
101148.36
101077.8
101106.58
101075.35
101076.39
101058.71
101048.53
101032.93
101017.5
100999.58
100979.95
100958.16
100935.13
100911.15
100884.62
100853.58
100816.06
100770.31
100713.42
100645.7
100560.31
100470.01
100343.64
100250.05
100056.95
100004.44
100973.87
101217.06
101050.45
101146.18
101074.11
101104.27
101072.4
101074.1
101056.27
101046.4
101030.87
101015.63
100997.88
100978.49
100957.1
100934.71
100911.33
100885.27
100854.73
100817.8
100772.84
100717.07
100651.04
100567.91
100480.87
100358.42
100269.72
100083.41
100035.07
100966.76
101215.48
101045.62
101144.13
101070.44
101102.13
101069.54
101072.01
101053.99
101044.49
101029.04
101014.04
100996.49
100977.4
100956.48
100934.79
100912.03
100886.48
100856.51
100820.26
100776.21
100721.68
100657.47
100576.72
100493.05
100374.57
100290.82
100110.94
100067.41
100959.55
101214.05
101040.73
101142.25
101066.78
101100.18
101066.76
101070.13
101051.88
101042.82
101027.46
101012.75
100995.44
100976.7
100956.34
100935.39
100913.25
100888.29
100858.96
100823.45
100780.4
100727.22
100664.97
100586.69
100506.52
100391.98
100313.18
100139.44
100101.24
100952.2
101212.81
101035.75
101140.62
101063.11
101098.49
101064.06
101068.52
101049.94
101041.44
101026.15
101011.8
100994.75
100976.44
100956.71
100936.54
100915.06
100890.73
100862.1
100827.43
100785.5
100733.79
100673.64
100597.94
100521.39
100410.72
100336.9
100168.97
100136.48
100944.69
101211.88
101030.6
101139.35
101059.39
101097.15
101061.42
101067.24
101048.18
101040.41
101025.14
101011.23
100994.46
100976.66
100957.64
100938.28
100917.51
100893.92
100866.12
100832.44
100791.82
100741.77
100683.91
100610.92
100538.13
100431.24
100362.4
100199.76
100173.35
100936.95
101211.46
101025.18
101138.61
101055.52
101096.28
101058.8
101066.39
101046.58
101039.78
101024.41
101011.09
100994.59
100977.41
100959.15
100940.63
100920.59
100897.78
100870.87
100838.27
100799.06
100750.75
100695.26
100624.92
100555.78
100452.47
100388.42
100230.47
100210.62
100928.86
101211.85
101019.26
101138.66
101051.35
101096.06
101056.09
101066.09
101045.08
101039.64
101023.94
101011.4
100995.1
100978.65
100961.1
100943.25
100923.59
100901.02
100874.29
100841.92
100803.2
100755.65
100701.64
100633.06
100566.99
100466.65
100407.38
100253.76
100241.47
100919.97
101213.71
101012.2
101140.03
101046.42
101096.84
101052.98
101066.52
101043.43
101040.07
101023.54
101012.19
100995.9
100980.38
100963.38
100945.97
100926.12
100902.98
100875.34
100841.9
100802.39
100754.33
100701
100633.44
100570.66
100473.1
100419.67
100269.67
100266.34
100913.95
101218.73
101006.45
101144.13
101042.74
101100.12
101051.33
101069.41
101043.53
101042.99
101025.18
101015.48
100998.83
100984.54
100968.71
100953.98
100937.75
100919.5
100897.77
100870.99
100838.95
100798.35
100753.36
100692.68
100638.2
100545.35
100498.68
100349.07
100352.22
100910.98
101220.23
101003.95
101145.42
101041.15
101101
101050.43
101069.98
101043.15
101043.42
101025.19
101015.94
100999.25
100985.29
100969.36
100954.27
100937.34
100918.34
100895.83
100868.3
100835.64
100794.32
100748.9
100687.25
100632.63
100538.51
100492.58
100342.23
100348.76
100909.06
101220.84
101002.4
101145.95
101040.18
101101.35
101049.9
101070.22
101042.97
101043.66
101025.28
101016.29
100999.62
100985.91
100969.98
100954.73
100937.37
100917.78
100894.6
100866.37
100833.06
100791.04
100745.12
100682.72
100627.83
100532.85
100487.13
100335.79
100343.27
100907.76
101221.16
101001.35
101146.22
101039.55
101101.57
101049.61
101070.44
101042.96
101043.95
101025.51
101016.72
101000.1
100986.61
100970.81
100955.66
100938.23
100918.49
100895.07
100866.55
100833
100790.71
100744.7
100682.12
100627.34
100532.31
100486.81
100335.25
100342.95
100906.8
101221.35
101000.6
101146.39
101039.1
101101.73
101049.42
101070.64
101043
101044.24
101025.77
101017.17
101000.6
100987.34
100971.7
100956.73
100939.4
100919.72
100896.31
100867.78
100834.26
100792.02
100746.21
100683.86
100629.47
100535.01
100489.9
100339.1
100347.17
100906.1
101221.4
101000.06
101146.46
101038.79
101101.82
101049.3
101070.8
101043.07
101044.51
101026.02
101017.59
101001.08
100988.05
100972.58
100957.8
100940.62
100921.08
100897.81
100869.41
100836.07
100794.07
100748.63
100686.78
100632.95
100539.56
100494.94
100345.88
100354.48
100905.64
101221.3
100999.71
101146.43
101038.58
101101.87
101049.24
101070.93
101043.15
101044.75
101026.27
101018
101001.57
100988.77
100973.47
100958.89
100941.87
100922.51
100899.41
100871.21
100838.15
100796.5
100751.55
100690.41
100637.27
100545.4
100501.37
100354.98
100364.19
100905.37
101221.11
100999.49
101146.35
101038.45
101101.87
101049.21
101071.03
101043.25
101044.98
101026.53
101018.4
101002.06
100989.51
100974.4
100960.03
100943.18
100924.01
100901.11
100873.17
100840.44
100799.26
100754.9
100694.69
100642.38
100552.51
100509.18
100366.42
100376.34
100905.25
101220.86
100999.38
101146.22
101038.38
101101.86
101049.21
101071.14
101043.36
101045.21
101026.8
101018.81
101002.59
100990.28
100975.38
100961.24
100944.58
100925.62
100902.96
100875.32
100843
100802.39
100758.74
100699.71
100648.37
100561.03
100518.59
100380.34
100391.21
100905.25
101220.58
100999.33
101146.09
101038.32
101101.85
101049.21
101071.24
101043.48
101045.46
101027.07
101019.25
101003.14
100991.12
100976.45
100962.56
100946.1
100927.38
100905
100877.71
100845.88
100805.96
100763.16
100705.57
100655.42
100571.11
100529.83
100396.93
100409.15
100905.34
101220.31
100999.31
101145.98
101038.28
101101.86
101049.22
101071.37
101043.6
101045.72
101027.36
101019.73
101003.75
100992.04
100977.61
100963.98
100947.77
100929.33
100907.26
100880.4
100849.14
100810.06
100768.27
100712.38
100663.66
100582.85
100543.12
100416.28
100430.42
100905.47
101220.06
100999.3
101145.88
101038.23
101101.89
101049.22
101071.51
101043.72
101046.02
101027.68
101020.24
101004.41
100993.04
100978.87
100965.55
100949.6
100931.48
100909.78
100883.43
100852.83
100814.74
100774.11
100720.18
100673.18
100596.25
100558.57
100438.37
100455.08
100905.62
101219.87
100999.28
101145.83
101038.16
101101.96
101049.21
101071.69
101043.85
101046.34
101028.02
101020.81
101005.14
100994.13
100980.24
100967.25
100951.6
100933.84
100912.57
100886.8
100856.98
100820
100780.73
100728.95
100683.97
100611.21
100576.12
100462.96
100482.9
100905.76
101219.73
100999.24
101145.82
101038.08
101102.07
101049.2
101071.91
101043.99
101046.71
101028.39
101021.44
101005.93
100995.32
100981.73
100969.08