/*--------------------------------*- C++ -*----------------------------------*\
| =========                 |                                                 |
| \\      /  F ield         | OpenFOAM: The Open Source CFD Toolbox           |
|  \\    /   O peration     | Version:  2206                                  |
|   \\  /    A nd           | Website:  www.openfoam.com                      |
|    \\/     M anipulation  |                                                 |
\*---------------------------------------------------------------------------*/
FoamFile
{
    version     2.0;
    format      ascii;
    arch        "LSB;label=32;scalar=64";
    class       volScalarField;
    location    "0";
    object      T_0;
}
// * * * * * * * * * * * * * * * * * * * * * * * * * * * * * * * * * * * * * //

dimensions      [0 0 0 1 0 0 0];

internalField   nonuniform List<scalar> 
19794
(
292.97634
292.97578
292.97779
292.98172
292.98539
292.98882
292.99131
292.99313
292.99432
292.99509
292.99556
292.99586
292.99606
292.99624
292.99642
292.99659
292.99674
292.99688
292.99698
292.99706
292.9971
292.99712
292.99712
292.99713
292.99716
292.99725
292.99746
292.9978
292.99829
292.99894
292.99977
293.00066
293.00179
293.00303
293.00434
293.00572
293.00712
293.00858
293.0101
293.01173
293.01351
293.0155
293.01773
293.02019
293.02285
293.02554
293.02822
293.03094
293.03168
292.9806
292.97791
292.97268
292.97095
292.96925
292.96915
292.97015
292.97182
292.97345
292.97495
292.9765
292.97811
292.97977
292.98143
292.98307
292.98465
292.98614
292.98751
292.98877
292.98992
292.99096
292.99191
292.9928
292.99362
292.99438
292.99511
292.99582
292.99653
292.99725
292.99799
292.99875
292.99963
293.00039
293.00106
293.0016
293.00193
293.00199
293.0017
293.00096
292.99973
292.99798
292.99576
292.99303
292.98967
292.98587
292.98043
292.97699
292.96296
292.96784
292.95574
292.95848
292.95732
292.95913
292.95843
292.95907
292.95936
292.96057
292.96227
292.96424
292.9665
292.96886
292.97131
292.97375
292.97614
292.97846
292.98066
292.9827
292.98461
292.9864
292.98807
292.98962
292.99104
292.99235
292.9936
292.99474
292.99571
292.99657
292.99737
292.99813
292.99887
292.99963
293.00026
293.00073
293.00102
293.00112
293.00094
293.00051
292.99982
292.99892
292.99776
292.99615
292.9943
292.99223
292.99038
292.98763
292.99043
292.98959
292.99989
292.93509
292.935
292.93668
292.94342
292.94468
292.94846
292.9505
292.95303
292.95572
292.95871
292.96179
292.96486
292.9679
292.97089
292.97378
292.97656
292.97918
292.98163
292.9839
292.98597
292.98784
292.98955
292.99109
292.99251
292.99385
292.99513
292.99633
292.99745
292.99849
292.99943
293.00025
293.00093
293.00157
293.00219
293.00273
293.00316
293.00341
293.00352
293.00355
293.00355
293.00361
293.0039
293.00452
293.00527
293.00687
293.00673
293.00973
293.00394
293.00182
292.91847
292.91679
292.92013
292.92792
292.93021
292.93608
292.94003
292.94451
292.94863
292.95275
292.95663
292.96037
292.96398
292.9675
292.97089
292.97413
292.97719
292.98008
292.98278
292.98524
292.98744
292.98943
292.99121
292.99287
292.99445
292.99597
292.99743
292.99882
293.00016
293.00148
293.00275
293.00394
293.00505
293.00612
293.00711
293.008
293.00881
293.00954
293.0102
293.01081
293.01143
293.01205
293.01273
293.01297
293.01359
293.01254
293.01365
293.00814
293.00848
292.90088
292.89921
292.90493
292.91223
292.91606
292.92309
292.92843
292.93448
292.93985
292.94494
292.94955
292.95392
292.95804
292.962
292.96581
292.96945
292.97293
292.97625
292.97938
292.98237
292.9852
292.98785
292.99029
292.99243
292.99435
292.99612
292.99784
292.99955
293.00125
293.00292
293.00456
293.00611
293.00757
293.00895
293.01024
293.0114
293.01246
293.01341
293.0142
293.01479
293.0152
293.01546
293.01582
293.01571
293.0164
293.01599
293.01856
293.01743
293.02219
292.88552
292.88369
292.89043
292.89634
292.90206
292.90961
292.91605
292.92321
292.92965
292.93567
292.9411
292.94617
292.95089
292.95534
292.95957
292.96359
292.96745
292.97114
292.97465
292.97797
292.98114
292.98415
292.98705
292.98986
292.99251
292.99498
292.99729
292.99942
293.00142
293.0034
293.00532
293.00724
293.00905
293.01072
293.0123
293.01375
293.01502
293.01602
293.01677
293.01733
293.01787
293.01838
293.01941
293.01982
293.02235
293.02302
293.02845
293.02908
293.03496
292.87312
292.87135
292.87839
292.88225
292.88912
292.89644
292.90364
292.9114
292.91869
292.92561
292.93194
292.93783
292.94328
292.94838
292.95316
292.95768
292.96198
292.96607
292.96997
292.97368
292.97722
292.98059
292.98384
292.98698
292.99001
292.9929
292.99563
292.99829
293.001
293.00358
293.00595
293.00821
293.01037
293.01239
293.0142
293.01579
293.01715
293.01833
293.01945
293.02063
293.02203
293.02354
293.02587
293.02748
293.03168
293.03371
293.0396
293.04048
293.04427
292.86246
292.86109
292.86912
292.87139
292.87835
292.88482
292.89242
292.90021
292.90795
292.9155
292.9226
292.92928
292.93551
292.94134
292.9468
292.95194
292.95681
292.96143
292.96582
292.97001
292.97399
292.9778
292.98145
292.98499
292.98839
292.99175
292.99512
292.99835
293.00128
293.00412
293.00691
293.00944
293.01182
293.01407
293.01621
293.01822
293.02015
293.02208
293.02414
293.02639
293.02894
293.03162
293.03504
293.03775
293.04238
293.0449
293.04933
293.04936
293.05035
292.85183
292.85143
292.86134
292.86336
292.87015
292.87544
292.88315
292.89062
292.89844
292.9062
292.91374
292.92099
292.92788
292.9344
292.94056
292.94639
292.95192
292.95717
292.96218
292.96695
292.97151
292.97587
292.98005
292.98409
292.98812
292.99195
292.99556
292.99902
293.00229
293.0055
293.00863
293.01164
293.01456
293.01742
293.02022
293.02298
293.02578
293.02865
293.03167
293.03484
293.03822
293.04157
293.04542
293.04853
293.05235
293.05428
293.05659
293.05512
293.05391
292.83941
292.84076
292.85402
292.85664
292.86409
292.86835
292.87598
292.88298
292.89075
292.89847
292.90613
292.91366
292.92095
292.92799
292.93474
292.94121
292.9474
292.95333
292.95902
292.96446
292.96969
292.97471
292.97954
292.98425
292.9886
292.99288
292.99705
293.00104
293.00499
293.00881
293.01254
293.01621
293.01983
293.0234
293.0269
293.03037
293.03387
293.0374
293.04097
293.04454
293.04817
293.05154
293.05513
293.05781
293.06024
293.06095
293.06132
293.05787
293.05516
292.82413
292.8276
292.84564
292.84948
292.85892
292.86298
292.87063
292.8772
292.88486
292.89251
292.90022
292.90787
292.91538
292.92274
292.9299
292.93685
292.9436
292.95013
292.95645
292.96256
292.96846
292.97416
292.97972
292.98494
292.99009
292.99509
292.99994
293.00464
293.00926
293.01378
293.0182
293.02253
293.02676
293.03088
293.0349
293.03883
293.0427
293.04648
293.05017
293.0537
293.0571
293.06007
293.06283
293.06449
293.06541
293.06487
293.06395
293.05878
293.0555
292.80565
292.8112
292.83475
292.84028
292.85285
292.85802
292.86634
292.87289
292.88051
292.88807
292.89582
292.9036
292.91131
292.91892
292.92638
292.9337
292.94086
292.94787
292.95471
292.96137
292.96788
292.97428
292.98035
292.98635
292.99219
292.99788
293.00344
293.00883
293.01407
293.0192
293.0242
293.02904
293.03371
293.0382
293.04252
293.04665
293.05061
293.05436
293.05787
293.06107
293.06392
293.06621
293.06789
293.06856
293.06858
293.0671
293.06556
293.0597
293.05623
292.78429
292.79152
292.82052
292.82797
292.8441
292.8516
292.86154
292.869
292.87707
292.8848
292.89265
292.90053
292.90842
292.91627
292.92403
292.93169
292.93923
292.94663
292.95389
292.96107
292.96809
292.97485
292.98158
292.98815
292.99457
293.00085
293.00699
293.0129
293.01859
293.02414
293.02955
293.03472
293.03966
293.04435
293.04879
293.05296
293.05685
293.06042
293.06364
293.06643
293.06874
293.07044
293.07129
293.07138
293.07105
293.06899
293.06722
293.06188
293.06033
292.76093
292.76938
292.8024
292.81235
292.83167
292.84213
292.85441
292.86374
292.8731
292.88165
292.89004
292.89826
292.90641
292.9145
292.92252
292.93049
292.93837
292.94615
292.95385
292.96135
292.96873
292.97603
292.98318
292.99019
292.99705
293.00376
293.01032
293.01662
293.0226
293.02846
293.03413
293.0395
293.04458
293.04936
293.05383
293.05796
293.06175
293.06515
293.06814
293.07063
293.07261
293.07398
293.07443
293.07426
293.07364
293.07165
293.07041
293.06828
293.07049
292.73614
292.74568
292.78106
292.79374
292.81561
292.829
292.84381
292.85553
292.86682
292.87693
292.88653
292.89565
292.90447
292.91307
292.92151
292.92982
292.93802
292.94614
292.95415
292.96208
292.96987
292.97754
292.98506
292.99243
292.99962
293.00663
293.01347
293.02001
293.02621
293.03227
293.03812
293.04365
293.04884
293.0537
293.05821
293.06234
293.06608
293.06938
293.07222
293.07452
293.07628
293.07741
293.0779
293.07793
293.07785
293.07739
293.07891
293.07944
293.08568
292.7101
292.72065
292.75771
292.77283
292.79662
292.81261
292.8297
292.84381
292.85723
292.86929
292.88056
292.8911
292.9011
292.91067
292.9199
292.92887
292.93761
292.94613
292.95455
292.96291
292.97113
292.97919
292.98705
292.99473
293.00221
293.00947
293.01651
293.02322
293.02958
293.03577
293.04175
293.04739
293.05269
293.05762
293.06219
293.06637
293.07013
293.07347
293.07636
293.07877
293.08075
293.0823
293.0836
293.08482
293.08652
293.08827
293.09268
293.09569
293.1034
292.68247
292.69432
292.73287
292.75032
292.7756
292.7939
292.81288
292.82916
292.84458
292.8586
292.8717
292.88391
292.89541
292.90631
292.91672
292.92671
292.93636
292.94569
292.95464
292.9635
292.97224
292.98079
292.98911
292.99718
293.005
293.01255
293.01984
293.02677
293.03334
293.0397
293.04583
293.05164
293.0571
293.06221
293.06697
293.07137
293.07541
293.07909
293.08243
293.08546
293.08827
293.09093
293.09366
293.09658
293.10029
293.10411
293.11037
293.11484
293.12233
292.65165
292.6663
292.70637
292.72646
292.7531
292.77364
292.7943
292.81254
292.82974
292.84557
292.86037
292.87423
292.88728
292.89963
292.91138
292.92262
292.93341
292.94386
292.95397
292.96357
292.97294
292.98205
292.99089
292.99946
293.00775
293.01576
293.02346
293.03078
293.03774
293.04446
293.05094
293.05712
293.06298
293.06852
293.07375
293.07869
293.08336
293.08777
293.09198
293.09604
293.10004
293.10408
293.10834
293.11287
293.11816
293.12335
293.13046
293.13521
293.14157
292.61389
292.63461
292.67719
292.70084
292.72912
292.75214
292.77456
292.7948
292.81378
292.8314
292.84792
292.86343
292.87806
292.89191
292.90508
292.91764
292.92966
292.94123
292.95238
292.96313
292.97346
292.98346
292.99312
293.00242
293.01139
293.02003
293.02834
293.03626
293.04383
293.05112
293.05818
293.06496
293.07145
293.07767
293.08364
293.08937
293.09491
293.10029
293.10556
293.11078
293.11601
293.12135
293.12689
293.13262
293.13886
293.14469
293.15187
293.15604
293.16098
292.55645
292.59212
292.64166
292.67119
292.70233
292.72865
292.75344
292.776
292.79698
292.81647
292.8347
292.85183
292.868
292.88333
292.89793
292.91189
292.92527
292.93815
292.95057
292.96259
292.97397
292.98469
292.99509
293.00527
293.01513
293.02465
293.03382
293.04263
293.05107
293.05923
293.06715
293.07482
293.08223
293.0894
293.09636
293.10313
293.10974
293.11623
293.12264
293.129
293.13536
293.14174
293.14818
293.15463
293.16121
293.16713
293.17385
293.17703
293.18097
292.46803
292.52221
292.586
292.62935
292.66783
292.70004
292.72877
292.75467
292.77849
292.80057
292.82118
292.84051
292.85869
292.87588
292.89217
292.90769
292.92251
292.93671
292.9503
292.96334
292.97594
292.98819
292.99998
293.01129
293.02219
293.03271
293.04284
293.05261
293.06201
293.0711
293.07994
293.08854
293.09689
293.10501
293.11292
293.12065
293.12822
293.13566
293.143
293.15025
293.15743
293.16455
293.17161
293.17853
293.1853
293.19127
293.19755
293.19967
293.20324
292.3852
292.43529
292.49866
292.55493
292.60637
292.65139
292.69032
292.72403
292.7536
292.78
292.80397
292.82605
292.84665
292.86602
292.88436
292.90176
292.91833
292.93413
292.94924
292.96369
292.97747
292.99082
293.00379
293.01635
293.02849
293.04025
293.05162
293.06263
293.07326
293.08354
293.09359
293.10341
293.11299
293.12232
293.13144
293.14037
293.14912
293.15769
293.16609
293.1743
293.1823
293.19005
293.19746
293.20442
293.21085
293.21635
293.22228
293.22478
293.23192
292.33946
292.37725
292.42575
292.47512
292.52467
292.57319
292.61952
292.66278
292.70251
292.73859
292.77118
292.80056
292.82711
292.85114
292.87307
292.8935
292.91272
292.93094
292.94841
292.96553
292.98219
292.99811
293.01314
293.02736
293.04097
293.05407
293.06671
293.07892
293.0907
293.10209
293.11318
293.12398
293.13449
293.1447
293.15463
293.16428
293.17368
293.18283
293.19176
293.20051
293.20911
293.21766
293.22628
293.23517
293.24465
293.25498
293.26749
293.27915
293.29675
292.32501
292.35469
292.39202
292.43186
292.47316
292.51512
292.55698
292.59808
292.63793
292.67617
292.7126
292.7471
292.77965
292.81032
292.83922
292.86629
292.89166
292.91547
292.93781
292.95863
292.97824
292.99688
293.0146
293.03135
293.04744
293.06292
293.07782
293.0922
293.10612
293.11962
293.13281
293.14574
293.15844
293.17097
293.18338
293.19572
293.20805
293.22044
293.23297
293.24569
293.2587
293.27202
293.28569
293.29964
293.31368
293.32749
293.34059
293.35135
293.36243
292.32945
292.35557
292.38744
292.42193
292.45812
292.49535
292.53306
292.57077
292.60812
292.6448
292.6806
292.71539
292.74905
292.78154
292.81281
292.84285
292.87166
292.89925
292.92566
292.95094
292.97514
292.99827
293.02053
293.04204
293.06276
293.08275
293.10206
293.12076
293.13889
293.15652
293.17368
293.19044
293.20682
293.22287
293.23862
293.25408
293.26926
293.28416
293.29876
293.313
293.32683
293.34012
293.35272
293.36445
293.37506
293.38423
293.39159
293.39658
293.40002
292.34248
292.36746
292.39698
292.42896
292.46266
292.49751
292.53296
292.56859
292.60411
292.63929
292.67398
292.70804
292.74136
292.77389
292.80558
292.83639
292.8663
292.8953
292.92339
292.95056
292.97682
293.00223
293.0269
293.05089
293.07421
293.09688
293.1189
293.1403
293.16109
293.1813
293.20094
293.22002
293.23855
293.25652
293.27391
293.29072
293.30691
293.32244
293.33723
293.35123
293.36431
293.37636
293.38722
293.3967
293.40459
293.41062
293.41446
293.41571
293.41457
292.3557
292.38198
292.41188
292.44382
292.4771
292.51125
292.54593
292.5808
292.61563
292.65019
292.68434
292.71798
292.751
292.78336
292.81501
292.84593
292.8761
292.90553
292.93421
292.96217
292.98944
293.01602
293.04189
293.06702
293.09144
293.11518
293.13825
293.16067
293.18243
293.20353
293.22399
293.24378
293.26289
293.2813
293.29898
293.3159
293.33199
293.34719
293.36144
293.37463
293.38664
293.39735
293.40658
293.41413
293.41979
293.42331
293.42437
293.42268
293.41777
292.35657
292.38525
292.41687
292.45018
292.48459
292.51967
292.55507
292.59049
292.62571
292.66056
292.69491
292.72869
292.76182
292.79426
292.82598
292.85696
292.8872
292.91669
292.94544
292.97346
293.00075
293.02733
293.05319
293.07835
293.10281
293.12659
293.14967
293.17207
293.19377
293.21477
293.23506
293.25463
293.27343
293.29145
293.30864
293.32496
293.34032
293.35467
293.36789
293.37989
293.39053
293.39964
293.40704
293.41252
293.41582
293.41666
293.41473
293.40937
293.39991
292.96688
292.98053
292.93845
292.92801
292.90785
292.89067
292.87667
292.8648
292.85311
292.83964
292.82295
292.80304
292.78048
292.75619
292.7308
292.70439
292.67676
292.64734
292.6139
292.56886
292.49848
292.40996
292.34217
292.30939
292.30215
292.30957
292.32345
292.33451
292.33239
292.95674
292.97637
292.92941
292.92442
292.90147
292.88669
292.87348
292.86159
292.8489
292.83369
292.81523
292.79389
292.77043
292.74566
292.7199
292.69309
292.66484
292.63413
292.59772
292.54565
292.4667
292.38007
292.3211
292.29551
292.29194
292.30053
292.31381
292.32226
292.31651
292.94715
292.9688
292.92119
292.92046
292.89482
292.88282
292.86956
292.8572
292.84316
292.82621
292.80622
292.78378
292.75967
292.7345
292.70838
292.68111
292.65209
292.61981
292.57953
292.51948
292.43432
292.35295
292.30305
292.28386
292.2834
292.29295
292.30565
292.3119
292.30371
292.93999
292.96276
292.91456
292.91716
292.88939
292.87994
292.86577
292.85266
292.83707
292.81853
292.79728
292.77401
292.74943
292.72392
292.69744
292.66965
292.63972
292.60548
292.56045
292.49221
292.40406
292.32988
292.28842
292.27453
292.27667
292.28697
292.29919
292.30377
292.29454
292.93412
292.95771
292.90872
292.91413
292.88492
292.87748
292.86187
292.84794
292.8308
292.81092
292.78872
292.76489
292.73999
292.71422
292.68739
292.65902
292.62803
292.59137
292.5407
292.46484
292.37694
292.31077
292.2769
292.26737
292.2717
292.28262
292.29454
292.29809
292.28932
292.92879
292.95301
292.90321
292.91112
292.88084
292.87498
292.85762
292.84292
292.82434
292.80341
292.78054
292.75635
292.73124
292.70525
292.67808
292.64908
292.61682
292.57718
292.52015
292.43808
292.35321
292.29519
292.26802
292.26215
292.26836
292.27989
292.29178
292.29497
292.28812
292.92391
292.94858
292.89801
292.90812
292.87694
292.8723
292.85304
292.83767
292.81778
292.79608
292.77273
292.74833
292.72309
292.69691
292.66936
292.63964
292.60587
292.56263
292.49885
292.41263
292.33286
292.28272
292.26141
292.25867
292.26657
292.27873
292.29092
292.29445
292.29057
292.91955
292.94451
292.89317
292.90519
292.87316
292.86944
292.84823
292.83233
292.81127
292.78902
292.76536
292.74083
292.71549
292.68912
292.66115
292.6306
292.59501
292.54754
292.47706
292.38911
292.31575
292.27299
292.25678
292.25679
292.26624
292.2791
292.29187
292.29632
292.29699
292.91574
292.9408
292.88869
292.90234
292.86946
292.86641
292.84329
292.82698
292.80491
292.78231
292.75843
292.73385
292.70844
292.68184
292.65339
292.62189
292.58411
292.53182
292.45524
292.36795
292.30164
292.2657
292.25387
292.25639
292.26722
292.28094
292.29474
292.30085
292.30682
292.91244
292.93746
292.88454
292.89953
292.86577
292.86322
292.83827
292.82169
292.79876
292.77596
292.75196
292.72736
292.70187
292.67502
292.64602
292.61339
292.57303
292.51545
292.43388
292.34934
292.29024
292.26055
292.25252
292.25727
292.26959
292.28433
292.29944
292.30771
292.31972
292.90964
292.93444
292.88069
292.89675
292.86207
292.85988
292.83322
292.81652
292.79286
292.77
292.74592
292.72134
292.69575
292.66859
292.63897
292.60501
292.56162
292.4985
292.41346
292.33332
292.2813
292.25726
292.25261
292.2595
292.27325
292.28915
292.30588
292.31677
292.33527
292.9073
292.93175
292.8771
292.89398
292.85836
292.85642
292.82819
292.81148
292.78722
292.76441
292.74031
292.71575
292.69002
292.6625
292.63214
292.59663
292.54976
292.48114
292.39442
292.31981
292.27456
292.2556
292.25392
292.26292
292.27813
292.29534
292.31398
292.32786
292.35309
292.90538
292.92933
292.87373
292.89122
292.85462
292.85289
292.82324
292.80663
292.78188
292.7592
292.7351
292.71055
292.68463
292.65668
292.62548
292.58815
292.53738
292.46362
292.37707
292.30867
292.26981
292.25541
292.25652
292.26746
292.28416
292.30285
292.32365
292.3408
292.37282
292.90382
292.92715
292.87053
292.88843
292.85088
292.84931
292.81838
292.80197
292.77683
292.75436
292.73027
292.7057
292.67954
292.65109
292.6189
292.57946
292.52444
292.44624
292.36159
292.2997
292.26686
292.2564
292.26025
292.27307
292.29131
292.31162
292.33478
292.35541
292.39415
292.90255
292.92517
292.86746
292.88562
292.84711
292.84571
292.81365
292.79752
292.7721
292.74987
292.72579
292.70116
292.6747
292.64565
292.61232
292.57045
292.51095
292.42935
292.34807
292.29274
292.26551
292.25867
292.26502
292.27967
292.29952
292.32157
292.34727
292.37152
292.4168
292.90152
292.92333
292.86447
292.88275
292.84335
292.84212
292.80907
292.79331
292.76767
292.74572
292.72162
292.69689
292.67004
292.64031
292.60566
292.56103
292.49698
292.41327
292.33651
292.28761
292.26558
292.26205
292.27077
292.28723
292.30873
292.33265
292.36102
292.38897
292.44057
292.90068
292.92159
292.86154
292.87984
292.83958
292.83856
292.80466
292.78934
292.76354
292.74188
292.71773
292.69282
292.66552
292.63498
292.59882
292.55113
292.48268
292.39827
292.32686
292.28415
292.26679
292.26644
292.27744
292.29568
292.31889
292.34479
292.37593
292.40763
292.46527
292.89997
292.91993
292.85863
292.87687
292.83584
292.83506
292.80045
292.78562
292.75971
292.73833
292.71407
292.68892
292.66106
292.62962
292.59173
292.5407
292.46821
292.38456
292.31901
292.28227
292.26922
292.27179
292.28496
292.30499
292.32997
292.35792
292.39193
292.42738
292.49076
292.89936
292.91833
292.85573
292.87386
292.83212
292.83163
292.79644
292.78216
292.75616
292.73501
292.71058
292.6851
292.6566
292.62413
292.58429
292.5297
292.45382
292.37228
292.31285
292.28183
292.27269
292.27803
292.2933
292.31511
292.3419
292.37198
292.40891
292.4481
292.51693
292.89883
292.91675
292.85282
292.87081
292.82843
292.8283
292.79264
292.77893
292.75285
292.7319
292.70721
292.68132
292.65208
292.61844
292.57643
292.51816
292.43973
292.36152
292.30827
292.28256
292.27712
292.28511
292.30241
292.32599
292.35464
292.38692
292.4268
292.4697
292.54371
292.89835
292.91521
292.84992
292.86775
292.8248
292.82506
292.78904
292.77593
292.74974
292.72891
292.70388
292.67748
292.64741
292.61247
292.56808
292.50613
292.4262
292.3523
292.30518
292.28454
292.28246
292.29297
292.31225
292.33761
292.36815
292.40267
292.44554
292.49211
292.57105
292.89792
292.91371
292.84703
292.86471
292.8212
292.82191
292.78566
292.77311
292.74677
292.72599
292.70051
292.67352
292.64253
292.60615
292.55917
292.49372
292.41345
292.34461
292.30352
292.28756
292.28866
292.30157
292.32279
292.34993
292.38239
292.41919
292.46505
292.51526
292.5989
292.89752
292.91224
292.84417
292.86169
292.81764
292.81884
292.78247
292.77045
292.74389
292.72305
292.69703
292.66935
292.63735
292.59939
292.54966
292.48105
292.40166
292.33839
292.30322
292.29153
292.29567
292.31088
292.33399
292.36291
292.39732
292.43642
292.48528
292.53908
292.62724
292.89717
292.91082
292.84134
292.85871
292.81415
292.81587
292.77942
292.76787
292.741
292.72001
292.69334
292.66489
292.6318
292.59214
292.53955
292.46831
292.39098
292.3336
292.30403
292.2964
292.30345
292.32087
292.34583
292.37653
292.4129
292.45432
292.50617
292.56353
292.65603
292.89686
292.90946
292.83856
292.85578
292.81071
292.81297
292.77646
292.76531
292.73803
292.71677
292.68935
292.66007
292.62581
292.58432
292.52884
292.4557
292.38152
292.33019
292.30608
292.30215
292.31196
292.33151
292.35828
292.39075
292.4291
292.47284
292.52766
292.58854
292.68523
292.89659
292.90818
292.83585
292.85292
292.80733
292.81015
292.7735
292.76268
292.73486
292.71323
292.68498
292.65481
292.61932
292.57588
292.51759
292.44344
292.37335
292.32815
292.30918
292.30873
292.32117
292.34277
292.37132
292.40555
292.44588
292.49193
292.54971
292.61407
292.71479
292.89635
292.90698
292.83322
292.85011
292.80399
292.80735
292.77047
292.75988
292.73139
292.70929
292.68013
292.64904
292.61225
292.5668
292.5059
292.43173
292.36653
292.32746
292.31323
292.31612
292.33106
292.35463
292.38494
292.42092
292.46321
292.51157
292.57226
292.64006
292.74465
292.89615
292.90586
292.83066
292.84737
292.80066
292.80453
292.76727
292.75681
292.72751
292.70484
292.67472
292.64268
292.60457
292.55705
292.49389
292.42078
292.36103
292.32797
292.31822
292.32429
292.34162
292.36709
292.39911
292.43681
292.48107
292.5317
292.59526
292.66644
292.77473
292.89597
292.90484
292.82819
292.84467
292.79728
292.80161
292.76379
292.75334
292.72309
292.69979
292.66868
292.6357
292.59624
292.54666
292.48173
292.41077
292.35689
292.32972
292.32412
292.33323
292.35282
292.38013
292.41381
292.45322
292.49941
292.55229
292.61867
292.69318
292.80511
292.8958
292.9039
292.82577
292.84198
292.7938
292.7985
292.7599
292.74934
292.71801
292.69404
292.66193
292.62804
292.58722
292.53567
292.46962
292.40187
292.35415
292.33266
292.33093
292.34292
292.36467
292.39374
292.42905
292.47013
292.51823
292.5733
292.64244
292.72024
292.8359
292.89561
292.90304
292.82338
292.83924
292.79011
292.79508
292.75545
292.74469
292.71216
292.68751
292.65444
292.61968
292.57752
292.52415
292.4578
292.39421
292.35286
292.33669
292.33865
292.35335
292.37715
292.40792
292.44481
292.48753
292.53749
292.59469
292.66653
292.74757
292.86711
292.89536
292.9022
292.82096
292.83638
292.78609
292.79122
292.75031
292.73925
292.70542
292.68015
292.64617
292.61062
292.56716
292.51223
292.4465
292.38789
292.35303
292.3418
292.34727
292.36452
292.39027
292.42266
292.46108
292.50539
292.55717
292.61644
292.6909
292.77514
292.89849
292.89498
292.90134
292.81843
292.83329
292.78158
292.78673
292.7443
292.7329
292.69771
292.67191
292.63712
292.60087
292.55619
292.50009
292.43597
292.383
292.35445
292.34798
292.3568
292.37645
292.40403
292.43797
292.47787
292.5237
292.57725
292.63851
292.71549
292.8029
292.9297
292.89438
292.90037
292.81566
292.82982
292.77639
292.78144
292.73725
292.72553
292.68895
292.6628
292.6273
292.59047
292.54468
292.48793
292.42648
292.37969
292.35744
292.35529
292.36725
292.38915
292.41845
292.45386
292.49516
292.54247
292.59771
292.66087
292.74027
292.83074
292.96056
292.8934
292.89916
292.81248
292.82578
292.77027
292.77514
292.72901
292.71706
292.67911
292.65286
292.61676
292.5795
292.53275
292.47601
292.4183
292.37813
292.36182
292.36376
292.37863
292.40262
292.43354
292.47032
292.51296
292.56166
292.61852
292.68348
292.76517
292.85852
292.991
292.89186
292.89758
292.80868
292.82099
292.76294
292.76763
292.71942
292.70748
292.66817
292.64219
292.60556
292.56808
292.52058
292.46467
292.41165
292.37841
292.36761
292.37343
292.391
292.41692
292.44933
292.48739
292.53129
292.5813
292.6397
292.70636
292.79019
292.88621
293.02126
292.88936
292.89518
292.80392
292.81501
292.75415
292.75858
292.70834
292.69669
292.65615
292.63089
292.59381
292.55638
292.5084
292.45424
292.40676
292.38041
292.37497
292.38444
292.40449
292.43217
292.46595
292.5052
292.55028
292.60154
292.66141
292.72973
292.81562
292.91431
293.0521
292.88611
292.89276
292.79787
292.80849
292.74347
292.74868
292.69577
292.68564
292.64327
292.61975
292.5817
292.54466
292.49622
292.44501
292.40403
292.38474
292.38406
292.39685
292.41913
292.44839
292.4834
292.52372
292.56987
292.62227
292.68347
292.7534
292.84109
292.94262
293.08364
292.88143
292.88656
292.79093
292.79777
292.73092
292.73434
292.68121
292.67107
292.62874
292.60626
292.56831
292.53184
292.48432
292.43728
292.40337
292.39
292.39347
292.40908
292.43322
292.46377
292.49972
292.54081
292.58758
292.64062
292.7022
292.77272
292.85995
292.96119
293.09882
292.87704
292.88278
292.78515
292.79155
292.72244
292.72646
292.67274
292.66369
292.62127
292.5999
292.56189
292.52579
292.47883
292.4347
292.40486
292.39581
292.40205
292.41956
292.44505
292.4766
292.51339
292.55525
292.60283
292.65676
292.71932
292.79114
292.87934
292.98217
293.11848
292.87522
292.87958
292.78331
292.7874
292.71921
292.72163
292.66927
292.65932
292.61802
292.59632
292.5589
292.5227
292.47635
292.43351
292.40564
292.398
292.40521
292.4233
292.44913
292.48088
292.51779
292.55972
292.60734
292.66134
292.72391
292.79589
292.88406
292.98715
293.12331
292.87372
292.8766
292.78181
292.78352
292.71648
292.71726
292.66633
292.65544
292.61527
292.59319
292.55631
292.51997
292.47418
292.43254
292.4065
292.40015
292.40825
292.42691
292.45308
292.48506
292.52212
292.5642
292.61194
292.66609
292.7288
292.80107
292.88938
292.99288
293.12893
292.87238
292.87385
292.7805
292.77998
292.71407
292.71332
292.66372
292.65197
292.61282
292.5904
292.55397
292.5175
292.47223
292.43173
292.40741
292.40228
292.41124
292.43045
292.45701
292.48925
292.52653
292.56881
292.61675
292.67117
292.73413
292.80684
292.89547
292.99954
293.13568
292.87113
292.87129
292.77931
292.77671
292.71189
292.70972
292.66134
292.64881
292.61057
292.58784
292.55179
292.51519
292.47041
292.43105
292.4084
292.40444
292.41426
292.43406
292.46103
292.4936
292.53115
292.57371
292.62195
292.67674
292.74009
292.81339
292.90255
293.00737
293.14388
292.86996
292.86889
292.7782
292.77366
292.70987
292.70638
292.65909
292.64587
292.60844
292.58542
292.54969
292.51296
292.46868
292.43047
292.40949
292.4067
292.41741
292.43783
292.46527
292.49823
292.53614
292.57907
292.62771
292.68298
292.74689
292.82094
292.9109
293.01663
293.1539
292.86884
292.86664
292.77713
292.77078
292.70792
292.70323
292.65692
292.64307
292.60637
292.58309
292.54761
292.51076
292.46698
292.42998
292.41071
292.40912
292.42076
292.44187
292.46985
292.50327
292.54163
292.58503
292.6342
292.69009
292.75474
292.82973
292.92077
293.02761
293.16614
292.86776
292.86451
292.77605
292.76804
292.70601
292.70023
292.65476
292.64038
292.6043
292.5808
292.5455
292.50855
292.46529
292.42958
292.41209
292.41178
292.42443
292.44629
292.47489
292.50886
292.54776
292.59174
292.64157
292.69825
292.76383
292.83998
292.93246
293.04056
293.18098
292.8667
292.86249
292.77493
292.76542
292.70407
292.69733
292.65258
292.63774
292.60221
292.57851
292.54334
292.50628
292.4636
292.42933
292.41368
292.41474
292.42847
292.45118
292.48048
292.5151
292.55465
292.59934
292.64997
292.7076
292.77434
292.85187
292.94617
293.05571
293.19872
292.86565
292.86056
292.77376
292.76287
292.70209
292.6945
292.65034
292.63513
292.60006
292.57619
292.5411
292.50396
292.46191
292.42925
292.41552
292.41807
292.43297
292.45661
292.48671
292.52208
292.56239
292.6079
292.65949
292.71825
292.78639
292.86553
292.96204
293.07319
293.21955
292.86461
292.8587
292.77253
292.76038
292.70004
292.69171
292.64804
292.63254
292.59785
292.57384
292.53877
292.50158
292.46024
292.42937
292.41766
292.4218
292.43796
292.46262
292.4936
292.52981
292.571
292.61747
292.67017
292.73023
292.8
292.88099
292.98008
293.09305
293.24345
292.86357
292.8569
292.77122
292.75794
292.69793
292.68895
292.64567
292.62995
292.59559
292.57147
292.53638
292.49917
292.45864
292.42977
292.42015
292.42597
292.44346
292.46921
292.50116
292.5383
292.58045
292.628
292.68195
292.74347
292.81507
292.89812
293.00009
293.11515
293.27017
292.86253
292.85514
292.76985
292.75552
292.69575
292.68621
292.64326
292.62738
292.59329
292.56909
292.53394
292.49677
292.45715
292.43052
292.42298
292.43055
292.44943
292.47632
292.50929
292.54743
292.59064
292.63935
292.69467
292.75778
292.83138
292.91667
293.02172
293.13918
293.29919
292.8615
292.85341
292.76842
292.75313
292.69353
292.6835
292.64084
292.62484
292.59099
292.56673
292.53151
292.49443
292.45585