/*--------------------------------*- C++ -*----------------------------------*\
| =========                 |                                                 |
| \\      /  F ield         | OpenFOAM: The Open Source CFD Toolbox           |
|  \\    /   O peration     | Version:  2206                                  |
|   \\  /    A nd           | Website:  www.openfoam.com                      |
|    \\/     M anipulation  |                                                 |
\*---------------------------------------------------------------------------*/
FoamFile
{
    version     2.0;
    format      ascii;
    arch        "LSB;label=32;scalar=64";
    class       volScalarField;
    location    "0.01";
    object      alphat;
}
// * * * * * * * * * * * * * * * * * * * * * * * * * * * * * * * * * * * * * //

dimensions      [1 -1 -1 0 0 0 0];

internalField   nonuniform List<scalar> 
1396
(
2.7772295e-08
2.7772295e-08
2.7772295e-08
2.7772295e-08
2.7772295e-08
2.7772295e-08
2.7772295e-08
2.7772295e-08
2.7772295e-08
2.7772295e-08
2.7772295e-08
2.7772295e-08
2.7772295e-08
2.7772295e-08
2.7772295e-08
2.7772295e-08
2.7772295e-08
2.7772294e-08
2.7772293e-08
2.7772291e-08
2.7772283e-08
2.7772295e-08
2.7772295e-08
2.7772295e-08
2.7772295e-08
2.7772295e-08
2.7772295e-08
2.7772295e-08
2.7772295e-08
2.7772295e-08
2.7772295e-08
2.7772294e-08
2.7772293e-08
2.7772291e-08
2.7772283e-08
2.7772295e-08
2.7772295e-08
2.7772295e-08
2.7772295e-08
2.7772295e-08
2.7772295e-08
2.7772295e-08
2.7772295e-08
2.7772295e-08
2.7772295e-08
2.7772294e-08
2.7772293e-08
2.7772291e-08
2.7772283e-08
2.7772295e-08
2.7772295e-08
2.7772295e-08
2.7772295e-08
2.7772295e-08
2.7772295e-08
2.7772295e-08
2.7772295e-08
2.7772295e-08
2.7772295e-08
2.7772294e-08
2.7772293e-08
2.7772291e-08
2.7772283e-08
2.7772295e-08
2.7772295e-08
2.7772295e-08
2.7772295e-08
2.7772295e-08
2.7772295e-08
2.7772295e-08
2.7772295e-08
2.7772295e-08
2.7772295e-08
2.7772294e-08
2.7772293e-08
2.7772291e-08
2.7772282e-08
2.7772295e-08
2.7772295e-08
2.7772295e-08
2.7772295e-08
2.7772295e-08
2.7772295e-08
2.7772295e-08
2.7772295e-08
2.7772295e-08
2.7772295e-08
2.7772294e-08
2.7772293e-08
2.7772291e-08
2.7772282e-08
2.7772295e-08
2.7772295e-08
2.7772295e-08
2.7772295e-08
2.7772295e-08
2.7772295e-08
2.7772295e-08
2.7772295e-08
2.7772295e-08
2.7772295e-08
2.7772294e-08
2.7772293e-08
2.7772291e-08
2.7772282e-08
2.7772295e-08
2.7772295e-08
2.7772295e-08
2.7772295e-08
2.7772295e-08
2.7772295e-08
2.7772295e-08
2.7772295e-08
2.7772295e-08
2.7772295e-08
2.7772294e-08
2.7772293e-08
2.7772291e-08
2.7772282e-08
2.7772295e-08
2.7772295e-08
2.7772295e-08
2.7772295e-08
2.7772295e-08
2.7772295e-08
2.7772295e-08
2.7772295e-08
2.7772295e-08
2.7772295e-08
2.7772294e-08
2.7772293e-08
2.7772291e-08
2.7772282e-08
2.7772295e-08
2.7772295e-08
2.7772295e-08
2.7772295e-08
2.7772295e-08
2.7772295e-08
2.7772295e-08
2.7772295e-08
2.7772295e-08
2.7772295e-08
2.7772294e-08
2.7772293e-08
2.7772291e-08
2.7772282e-08
2.7772295e-08
2.7772295e-08
2.7772295e-08
2.7772295e-08
2.7772295e-08
2.7772295e-08
2.7772295e-08
2.7772295e-08
2.7772295e-08
2.7772295e-08
2.7772294e-08
2.7772293e-08
2.7772291e-08
2.7772282e-08
2.7772295e-08
2.7772295e-08
2.7772295e-08
2.7772295e-08
2.7772295e-08
2.7772295e-08
2.7772295e-08
2.7772295e-08
2.7772295e-08
2.7772295e-08
2.7772294e-08
2.7772293e-08
2.7772291e-08
2.7772282e-08
2.7772295e-08
2.7772295e-08
2.7772295e-08
2.7772295e-08
2.7772295e-08
2.7772295e-08
2.7772295e-08
2.7772295e-08
2.7772295e-08
2.7772295e-08
2.7772294e-08
2.7772293e-08
2.7772291e-08
2.7772282e-08
2.7772295e-08
2.7772295e-08
2.7772295e-08
2.7772295e-08
2.7772295e-08
2.7772295e-08
2.7772295e-08
2.7772295e-08
2.7772295e-08
2.7772295e-08
2.7772294e-08
2.7772293e-08
2.7772291e-08
2.7772282e-08
2.7772295e-08
2.7772295e-08
2.7772295e-08
2.7772295e-08
2.7772295e-08
2.7772295e-08
2.7772295e-08
2.7772295e-08
2.7772295e-08
2.7772295e-08
2.7772294e-08
2.7772293e-08
2.7772291e-08
2.7772282e-08
2.7772295e-08
2.7772295e-08
2.7772295e-08
2.7772295e-08
2.7772295e-08
2.7772295e-08
2.7772295e-08
2.7772295e-08
2.7772295e-08
2.7772295e-08
2.7772294e-08
2.7772293e-08
2.7772291e-08
2.7772282e-08
2.7772295e-08
2.7772295e-08
2.7772295e-08
2.7772295e-08
2.7772295e-08
2.7772295e-08
2.7772295e-08
2.7772295e-08
2.7772295e-08
2.7772295e-08
2.7772294e-08
2.7772293e-08
2.7772291e-08
2.7772282e-08
2.7772282e-08
2.7772282e-08
2.7772282e-08
2.7772282e-08
2.7772282e-08
2.7772282e-08
2.7772282e-08
2.7772282e-08
2.7772283e-08
2.7772283e-08
2.7772291e-08
2.7772291e-08
2.7772291e-08
2.7772291e-08
2.7772291e-08
2.7772291e-08
2.7772291e-08
2.7772291e-08
2.7772291e-08
2.7772291e-08
2.7772293e-08
2.7772293e-08
2.7772293e-08
2.7772293e-08
2.7772293e-08
2.7772293e-08
2.7772293e-08
2.7772293e-08
2.7772293e-08
2.7772293e-08
2.7772294e-08
2.7772294e-08
2.7772294e-08
2.7772294e-08
2.7772294e-08
2.7772294e-08
2.7772294e-08
2.7772294e-08
2.7772294e-08
2.7772294e-08
2.7772295e-08
2.7772295e-08
2.7772295e-08
2.7772295e-08
2.7772295e-08
2.7772295e-08
2.7772295e-08
2.7772295e-08
2.7772295e-08
2.7772295e-08
2.7772295e-08
2.7772295e-08
2.7772295e-08
2.7772295e-08
2.7772295e-08
2.7772295e-08
2.7772295e-08
2.7772295e-08
2.7772295e-08
2.7772295e-08
2.7772295e-08
2.7772295e-08
2.7772295e-08
2.7772295e-08
2.7772295e-08
2.7772295e-08
2.7772295e-08
2.7772295e-08
2.7772295e-08
2.7772295e-08
2.7772295e-08
2.7772295e-08
2.7772295e-08
2.7772295e-08
2.7772295e-08
2.7772295e-08
2.7772295e-08
2.7772295e-08
2.7772295e-08
2.7772295e-08
2.7772295e-08
2.7772295e-08
2.7772295e-08
2.7772295e-08
2.7772295e-08
2.7772295e-08
2.7772295e-08
2.7772295e-08
2.7772295e-08
2.7772295e-08
2.7772295e-08
2.7772295e-08
2.7772295e-08
2.7772295e-08
2.7772295e-08
2.7772295e-08
2.7772295e-08
2.7772295e-08
2.7772295e-08
2.7772295e-08
2.7772295e-08
2.7772295e-08
2.7772295e-08
2.7772295e-08
2.7772295e-08
2.7772295e-08
2.7772295e-08
2.7772295e-08
2.7772295e-08
2.7772295e-08
2.7772295e-08
2.7772295e-08
2.7772295e-08
2.7772295e-08
2.7772295e-08
2.7772295e-08
2.7772295e-08
2.7772295e-08
2.7772295e-08
2.7772295e-08
2.7772295e-08
2.7772295e-08
2.7772295e-08
2.7772295e-08
2.7772295e-08
2.7772295e-08
2.7772295e-08
2.7772295e-08
2.7772295e-08
2.7772295e-08
2.7772295e-08
2.7772295e-08
2.7772295e-08
2.7772295e-08
2.7772295e-08
2.7772295e-08
2.7772295e-08
2.7772295e-08
2.7772295e-08
2.7772295e-08
2.7772282e-08
2.7772291e-08
2.7772293e-08
2.7772294e-08
2.7772295e-08
2.7772295e-08
2.7772295e-08
2.7772295e-08
2.7772295e-08
2.7772295e-08
2.7772295e-08
2.7772295e-08
2.7772295e-08
2.7772295e-08
2.7772282e-08
2.7772291e-08
2.7772293e-08
2.7772294e-08
2.7772295e-08
2.7772295e-08
2.7772295e-08
2.7772295e-08
2.7772295e-08
2.7772295e-08
2.7772295e-08
2.7772295e-08
2.7772295e-08
2.7772295e-08
2.7772282e-08
2.7772291e-08
2.7772293e-08
2.7772294e-08
2.7772295e-08
2.7772295e-08
2.7772295e-08
2.7772295e-08
2.7772295e-08
2.7772295e-08
2.7772295e-08
2.7772295e-08
2.7772295e-08
2.7772295e-08
2.7772282e-08
2.7772291e-08
2.7772293e-08
2.7772294e-08
2.7772295e-08
2.7772295e-08
2.7772295e-08
2.7772295e-08
2.7772295e-08
2.7772295e-08
2.7772295e-08
2.7772295e-08
2.7772295e-08
2.7772295e-08
2.7772282e-08
2.7772291e-08
2.7772293e-08
2.7772294e-08
2.7772295e-08
2.7772295e-08
2.7772295e-08
2.7772295e-08
2.7772295e-08
2.7772295e-08
2.7772295e-08
2.7772295e-08
2.7772295e-08
2.7772295e-08
2.7772282e-08
2.7772291e-08
2.7772293e-08
2.7772294e-08
2.7772295e-08
2.7772295e-08
2.7772295e-08
2.7772295e-08
2.7772295e-08
2.7772295e-08
2.7772295e-08
2.7772295e-08
2.7772295e-08
2.7772295e-08
2.7772282e-08
2.7772291e-08
2.7772293e-08
2.7772294e-08
2.7772295e-08
2.7772295e-08
2.7772295e-08
2.7772295e-08
2.7772295e-08
2.7772295e-08
2.7772295e-08
2.7772295e-08
2.7772295e-08
2.7772295e-08
2.7772282e-08
2.7772291e-08
2.7772293e-08
2.7772294e-08
2.7772295e-08
2.7772295e-08
2.7772295e-08
2.7772295e-08
2.7772295e-08
2.7772295e-08
2.7772295e-08
2.7772295e-08
2.7772295e-08
2.7772295e-08
2.7772282e-08
2.7772291e-08
2.7772293e-08
2.7772294e-08
2.7772295e-08
2.7772295e-08
2.7772295e-08
2.7772295e-08
2.7772295e-08
2.7772295e-08
2.7772295e-08
2.7772295e-08
2.7772295e-08
2.7772295e-08
2.7772282e-08
2.7772291e-08
2.7772293e-08
2.7772294e-08
2.7772295e-08
2.7772295e-08
2.7772295e-08
2.7772295e-08
2.7772295e-08
2.7772295e-08
2.7772295e-08
2.7772295e-08
2.7772295e-08
2.7772295e-08
2.7772282e-08
2.7772291e-08
2.7772293e-08
2.7772294e-08
2.7772295e-08
2.7772295e-08
2.7772295e-08
2.7772295e-08
2.7772295e-08
2.7772295e-08
2.7772295e-08
2.7772295e-08
2.7772295e-08
2.7772295e-08
2.7772282e-08
2.7772291e-08
2.7772293e-08
2.7772294e-08
2.7772295e-08
2.7772295e-08
2.7772295e-08
2.7772295e-08
2.7772295e-08
2.7772295e-08
2.7772295e-08
2.7772295e-08
2.7772295e-08
2.7772295e-08
2.7772282e-08
2.7772291e-08
2.7772293e-08
2.7772294e-08
2.7772295e-08
2.7772295e-08
2.7772295e-08
2.7772295e-08
2.7772295e-08
2.7772295e-08
2.7772295e-08
2.7772295e-08
2.7772295e-08
2.7772295e-08
2.7772282e-08
2.7772291e-08
2.7772293e-08
2.7772294e-08
2.7772295e-08
2.7772295e-08
2.7772295e-08
2.7772295e-08
2.7772295e-08
2.7772295e-08
2.7772295e-08
2.7772295e-08
2.7772295e-08
2.7772295e-08
2.7772295e-08
2.7772295e-08
2.7772295e-08
2.7772295e-08
2.7772295e-08
2.7772295e-08
2.7772295e-08
2.7772295e-08
2.7772294e-08
2.7772293e-08
2.7772291e-08
2.7772282e-08
2.7772295e-08
2.7772295e-08
2.7772295e-08
2.7772295e-08
2.7772295e-08
2.7772295e-08
2.7772294e-08
2.7772293e-08
2.7772291e-08
2.7772282e-08
2.7772295e-08
2.7772295e-08
2.7772295e-08
2.7772295e-08
2.7772295e-08
2.7772294e-08
2.7772293e-08
2.7772291e-08
2.7772282e-08
2.7772295e-08
2.7772295e-08
2.7772295e-08
2.7772294e-08
2.7772293e-08
2.7772291e-08
2.7772282e-08
2.7772295e-08
2.7772295e-08
2.7772294e-08
2.7772293e-08
2.7772291e-08
2.7772282e-08
2.7772294e-08
2.7772293e-08
2.7772291e-08
2.7772282e-08
2.7772293e-08
2.7772291e-08
2.7772282e-08
2.7772291e-08
2.7772282e-08
2.7772282e-08
2.3881708e-08
2.3657742e-08
2.3543836e-08
2.3478838e-08
2.3478332e-08
2.3519026e-08
2.3568718e-08
2.3628171e-08
2.3696758e-08
2.3777328e-08
2.7590878e-08
2.7583975e-08
2.7581349e-08
2.7577088e-08
2.7574055e-08
2.7571648e-08
2.7570273e-08
2.7569769e-08
2.7570007e-08
2.7568361e-08
2.7702822e-08
2.7700673e-08
2.7699111e-08
2.7698119e-08
2.769801e-08
2.7697874e-08
2.7697514e-08
2.7697102e-08
2.7696608e-08
2.7697e-08
2.7766653e-08
2.7766368e-08
2.7766144e-08
2.7766001e-08
2.7765924e-08
2.7765891e-08
2.7765866e-08
2.7765842e-08
2.7765778e-08
2.7765604e-08
2.7771837e-08
2.7771829e-08
2.7771819e-08
2.7771814e-08
2.7771811e-08
2.7771804e-08
2.7771799e-08
2.7771793e-08
2.7771789e-08
2.7771785e-08
2.7772071e-08
2.7772071e-08
2.7772067e-08
2.7772064e-08
2.7772062e-08
2.7772059e-08
2.7772057e-08
2.7772056e-08
2.7772052e-08
2.7772051e-08
2.7772138e-08
2.7772138e-08
2.7772137e-08
2.7772133e-08
2.7772132e-08
2.7772132e-08
2.7772129e-08
2.7772127e-08
2.7772126e-08
2.7772124e-08
2.7772178e-08
2.7772178e-08
2.7772175e-08
2.7772174e-08
2.7772173e-08
2.7772173e-08
2.7772172e-08
2.777217e-08
2.7772169e-08
2.7772168e-08
2.7772203e-08
2.7772204e-08
2.7772202e-08
2.7772202e-08
2.7772202e-08
2.77722e-08
2.7772199e-08
2.7772198e-08
2.7772197e-08
2.7772197e-08
2.7772222e-08
2.7772222e-08
2.7772221e-08
2.7772221e-08
2.777222e-08
2.777222e-08
2.7772218e-08
2.7772218e-08
2.7772217e-08
2.7772217e-08
2.7772235e-08
2.7772236e-08
2.7772235e-08
2.7772235e-08
2.7772234e-08
2.7772233e-08
2.7772233e-08
2.7772232e-08
2.7772232e-08
2.7772231e-08
2.7772246e-08
2.7772246e-08
2.7772245e-08
2.7772245e-08
2.7772244e-08
2.7772244e-08
2.7772243e-08
2.7772243e-08
2.7772243e-08
2.7772242e-08
2.7772254e-08
2.7772254e-08
2.7772253e-08
2.7772253e-08
2.7772253e-08
2.7772252e-08
2.7772252e-08
2.7772251e-08
2.7772251e-08
2.777225e-08
2.777226e-08
2.777226e-08
2.7772259e-08
2.7772259e-08
2.7772259e-08
2.7772258e-08
2.7772258e-08
2.7772257e-08
2.7772257e-08
2.7772257e-08
2.3980831e-08
2.4352688e-08
2.4748221e-08
2.5090755e-08
2.54106e-08
2.5759939e-08
2.6162121e-08
2.6560348e-08
2.6875257e-08
2.7111168e-08
2.7303839e-08
2.7482129e-08
2.7631902e-08
2.7772865e-08
2.7568613e-08
2.7596323e-08
2.7602726e-08
2.7608744e-08
2.7615377e-08
2.7623307e-08
2.7631664e-08
2.7639711e-08
2.7645399e-08
2.7648887e-08
2.7652954e-08
2.7656756e-08
2.7659465e-08
2.7661638e-08
2.7704609e-08
2.7709693e-08
2.7712895e-08
2.7716033e-08
2.7719182e-08
2.7722591e-08
2.7726082e-08
2.7729121e-08
2.7731398e-08
2.7733202e-08
2.7734848e-08
2.7736349e-08
2.7737848e-08
2.7739827e-08
2.7765596e-08
2.7766436e-08
2.7766914e-08
2.7767327e-08
2.776772e-08
2.776814e-08
2.7768554e-08
2.7768902e-08
2.7769144e-08
2.7769321e-08
2.7769476e-08
2.7769622e-08
2.7769764e-08
2.776995e-08
2.7771783e-08
2.7771817e-08
2.7771827e-08
2.7771839e-08
2.7771851e-08
2.7771866e-08
2.7771875e-08
2.7771884e-08
2.7771891e-08
2.7771897e-08
2.7771903e-08
2.7771908e-08
2.7771911e-08
2.7771919e-08
2.7772048e-08
2.7772052e-08
2.7772055e-08
2.7772055e-08
2.7772057e-08
2.777206e-08
2.7772059e-08
2.777206e-08
2.7772061e-08
2.7772063e-08
2.7772064e-08
2.7772066e-08
2.7772065e-08
2.7772067e-08
2.7772124e-08
2.7772125e-08
2.7772127e-08
2.7772126e-08
2.7772127e-08
2.7772129e-08
2.7772128e-08
2.7772129e-08
2.777213e-08
2.777213e-08
2.7772131e-08
2.7772132e-08
2.7772132e-08
2.7772133e-08
2.7772168e-08
2.7772168e-08
2.7772168e-08
2.7772169e-08
2.7772169e-08
2.7772171e-08
2.777217e-08
2.7772171e-08
2.7772171e-08
2.7772172e-08
2.7772173e-08
2.7772173e-08
2.7772174e-08
2.7772173e-08
2.7772195e-08
2.7772197e-08
2.7772197e-08
2.7772198e-08
2.7772198e-08
2.7772198e-08
2.7772198e-08
2.7772198e-08
2.7772199e-08
2.7772199e-08
2.77722e-08
2.7772201e-08
2.7772201e-08
2.7772201e-08
2.7772216e-08
2.7772217e-08
2.7772217e-08
2.7772217e-08
2.7772217e-08
2.7772218e-08
2.7772218e-08
2.7772218e-08
2.7772218e-08
2.7772219e-08
2.7772219e-08
2.777222e-08
2.777222e-08
2.777222e-08
2.777223e-08
2.7772231e-08
2.7772231e-08
2.7772232e-08
2.7772232e-08
2.7772232e-08
2.7772232e-08
2.7772232e-08
2.7772232e-08
2.7772233e-08
2.7772233e-08
2.7772233e-08
2.7772234e-08
2.7772234e-08
2.7772241e-08
2.7772242e-08
2.7772242e-08
2.7772242e-08
2.7772243e-08
2.7772242e-08
2.7772242e-08
2.7772243e-08
2.7772243e-08
2.7772243e-08
2.7772243e-08
2.7772244e-08
2.7772244e-08
2.7772244e-08
2.777225e-08
2.777225e-08
2.777225e-08
2.7772251e-08
2.7772251e-08
2.7772251e-08
2.7772251e-08
2.7772251e-08
2.7772251e-08
2.7772251e-08
2.7772251e-08
2.7772252e-08
2.7772252e-08
2.7772252e-08
2.7772257e-08
2.7772257e-08
2.7772257e-08
2.7772257e-08
2.7772257e-08
2.7772257e-08
2.7772257e-08
2.7772257e-08
2.7772257e-08
2.7772258e-08
2.7772258e-08
2.7772258e-08
2.7772258e-08
2.7772259e-08
2.7772263e-08
2.7772258e-08
2.7772251e-08
2.7772242e-08
2.777223e-08
2.7772214e-08
2.7772191e-08
2.7772156e-08
2.7772101e-08
2.7772006e-08
2.7771928e-08
2.7772262e-08
2.7772256e-08
2.7772249e-08
2.777224e-08
2.7772227e-08
2.7772211e-08
2.7772187e-08
2.7772151e-08
2.7772094e-08
2.7771997e-08
2.7771949e-08
2.778216e-08
2.7787854e-08
3.3561961e-08
2.7772261e-08
2.7772255e-08
2.7772248e-08
2.7772238e-08
2.7772225e-08
2.7772208e-08
2.7772184e-08
2.7772147e-08
2.7772088e-08
2.7771988e-08
2.7771824e-08
2.7773774e-08
2.7784394e-08
3.2987365e-08
2.777226e-08
2.7772254e-08
2.7772246e-08
2.7772237e-08
2.7772223e-08
2.7772206e-08
2.7772181e-08
2.7772144e-08
2.7772083e-08
2.7771979e-08
2.7771768e-08
2.7771209e-08
2.7768354e-08
3.2313643e-08
2.7772259e-08
2.7772253e-08
2.7772245e-08
2.7772235e-08
2.7772222e-08
2.7772204e-08
2.7772179e-08
2.777214e-08
2.7772079e-08
2.7771971e-08
2.7771669e-08
2.7767526e-08
2.7748018e-08
3.1519668e-08
2.7772259e-08
2.7772252e-08
2.7772245e-08
2.7772235e-08
2.7772221e-08
2.7772203e-08
2.7772177e-08
2.7772138e-08
2.7772075e-08
2.7771963e-08
2.7771501e-08
2.7762555e-08
2.7725802e-08
3.0654467e-08
2.7772258e-08
2.7772252e-08
2.7772244e-08
2.7772234e-08
2.777222e-08
2.7772202e-08
2.7772176e-08
2.7772136e-08
2.7772073e-08
2.7771956e-08
2.7771273e-08
2.7757185e-08
2.7705141e-08
2.9815977e-08
2.7772258e-08
2.7772252e-08
2.7772244e-08
2.7772234e-08
2.777222e-08
2.7772201e-08
2.7772174e-08
2.7772136e-08
2.7772072e-08
2.7771949e-08
2.7770995e-08
2.7752425e-08
2.7686891e-08
2.9151066e-08
2.7772258e-08
2.7772252e-08
2.7772244e-08
2.7772233e-08
2.777222e-08
2.7772201e-08
2.7772174e-08
2.7772134e-08
2.7772072e-08
2.7771945e-08
2.777076e-08
2.7748889e-08
2.7675688e-08
2.8636112e-08
2.7772258e-08
2.7772252e-08
2.7772244e-08
2.7772234e-08
2.777222e-08
2.7772201e-08
2.7772174e-08
2.7772133e-08
2.7772068e-08
2.7771937e-08
2.7770567e-08
2.7746078e-08
2.766332e-08
2.8173064e-08
2.7772263e-08
2.7772258e-08
2.7772251e-08
2.7772242e-08
2.777223e-08
2.7772214e-08
2.7772191e-08
2.7772156e-08
2.77721e-08
2.7772002e-08
2.7771673e-08
2.7766048e-08
2.7742232e-08
3.1053472e-08
2.7772263e-08
2.7772257e-08
2.777225e-08
2.7772241e-08
2.7772229e-08
2.7772212e-08
2.7772189e-08
2.7772153e-08
2.7772097e-08
2.7771995e-08
2.7771595e-08
2.7764141e-08
2.7733078e-08
3.0725555e-08
2.7772262e-08
2.7772256e-08
2.7772249e-08
2.777224e-08
2.7772227e-08
2.7772211e-08
2.7772187e-08
2.7772151e-08
2.7772093e-08
2.7771989e-08
2.7771505e-08
2.776215e-08
2.7723614e-08
3.0386342e-08
2.7772261e-08
2.7772256e-08
2.7772248e-08
2.7772239e-08
2.7772226e-08
2.7772209e-08
2.7772186e-08
2.7772149e-08
2.7772091e-08
2.7771984e-08
2.7771403e-08
2.7760033e-08
2.7713848e-08
3.0039794e-08
2.7772261e-08
2.7772255e-08
2.7772248e-08
2.7772238e-08
2.7772225e-08
2.7772208e-08
2.7772183e-08
2.7772148e-08
2.7772089e-08
2.7771979e-08
2.7771287e-08
2.7757774e-08
2.7703726e-08
2.9680133e-08
2.7772261e-08
2.7772255e-08
2.7772247e-08
2.7772238e-08
2.7772225e-08
2.7772207e-08
2.7772182e-08
2.7772145e-08
2.7772087e-08
2.7771974e-08
2.7771152e-08
2.7755355e-08
2.7693546e-08
2.9301289e-08
2.777226e-08
2.7772254e-08
2.7772247e-08
2.7772237e-08
2.7772224e-08
2.7772207e-08
2.7772181e-08
2.7772144e-08
2.7772086e-08
2.777197e-08
2.7770997e-08
2.7752801e-08
2.7683032e-08
2.8904436e-08
2.777226e-08
2.7772254e-08
2.7772247e-08
2.7772237e-08
2.7772224e-08
2.7772206e-08
2.7772181e-08
2.7772143e-08
2.7772083e-08
2.7771966e-08
2.7770829e-08
2.7750171e-08
2.7672562e-08
2.8495886e-08
2.777226e-08
2.7772254e-08
2.7772247e-08
2.7772237e-08
2.7772224e-08
2.7772206e-08
2.7772181e-08
2.7772143e-08
2.7772083e-08
2.7771963e-08
2.7770632e-08
2.7747324e-08
2.7661307e-08
2.8040008e-08
2.7772261e-08
2.7772255e-08
2.7772247e-08
2.7772237e-08
2.7772224e-08
2.7772207e-08
2.7772181e-08
2.7772143e-08
2.7772082e-08
2.7771954e-08
2.7770379e-08
2.7744362e-08
2.7647553e-08
2.7543897e-08
2.777226e-08
2.777226e-08
2.777226e-08
2.777226e-08
2.777226e-08
2.7772261e-08
2.7772261e-08
2.7772254e-08
2.7772254e-08
2.7772254e-08
2.7772254e-08
2.7772254e-08
2.7772255e-08
2.7772255e-08
2.7772255e-08
2.7772247e-08
2.7772247e-08
2.7772247e-08
2.7772247e-08
2.7772247e-08
2.7772247e-08
2.7772247e-08
2.7772247e-08
2.7772237e-08
2.7772237e-08
2.7772237e-08
2.7772237e-08
2.7772237e-08
2.7772237e-08
2.7772237e-08
2.7772237e-08
2.7772238e-08
2.7772224e-08
2.7772224e-08
2.7772224e-08
2.7772224e-08
2.7772224e-08
2.7772224e-08
2.7772224e-08
2.7772225e-08
2.7772225e-08
2.7772206e-08
2.7772206e-08
2.7772206e-08
2.7772206e-08
2.7772206e-08
2.7772206e-08
2.7772206e-08
2.7772206e-08
2.7772207e-08
2.7772207e-08
2.7772181e-08
2.7772181e-08
2.777218e-08
2.777218e-08
2.777218e-08
2.777218e-08
2.777218e-08
2.7772181e-08
2.7772181e-08
2.7772181e-08
2.7772142e-08
2.7772142e-08
2.7772142e-08
2.7772141e-08
2.7772141e-08
2.7772141e-08
2.7772141e-08
2.7772142e-08
2.7772142e-08
2.7772143e-08
2.7772143e-08
2.7772078e-08
2.7772078e-08
2.7772078e-08
2.7772077e-08
2.7772077e-08
2.7772078e-08
2.7772078e-08
2.7772078e-08
2.7772079e-08
2.777208e-08
2.7772081e-08
2.7771891e-08
2.7771894e-08
2.7771896e-08
2.77719e-08
2.7771904e-08
2.7771908e-08
2.7771912e-08
2.7771917e-08
2.7771923e-08
2.7771929e-08
2.7771935e-08
2.7771941e-08
2.7767836e-08
2.7767978e-08
2.7768131e-08
2.7768302e-08
2.7768491e-08
2.7768678e-08
2.7768884e-08
2.7769091e-08
2.7769304e-08
2.7769518e-08
2.7769722e-08
2.7769928e-08
2.7720879e-08
2.7721698e-08
2.7722675e-08
2.7723816e-08
2.7725149e-08
2.7726697e-08
2.7728332e-08
2.7730164e-08
2.7732109e-08
2.7734197e-08
2.7736402e-08
2.77386e-08
2.7740832e-08
2.7571511e-08
2.7572597e-08
2.7575596e-08
2.7579237e-08
2.75836e-08
2.7588513e-08
2.759476e-08
2.7600336e-08
2.7607373e-08
2.761427e-08
2.7621421e-08
2.7628689e-08
2.763612e-08
2.7644023e-08
2.4307375e-08
2.4406438e-08
2.4548636e-08
2.4708658e-08
2.4883842e-08
2.5074148e-08
2.52983e-08
2.5514855e-08
2.576125e-08
2.6015179e-08
2.6285117e-08
2.6571014e-08
2.6853692e-08
2.7095597e-08
)
;

boundaryField
{
    Side
    {
        type            empty;
    }
    Inlet
    {
        type            calculated;
        value           nonuniform List<scalar> 
42
(
2.7772295e-08
2.7772295e-08
2.7772295e-08
2.7772295e-08
2.7772295e-08
2.7772295e-08
2.7772295e-08
2.7772295e-08
2.7772295e-08
2.7772295e-08
2.7772295e-08
2.7772295e-08
2.7772295e-08
2.7772295e-08
2.7772295e-08
2.7772295e-08
2.7772295e-08
2.7772295e-08
3.9592188e-07
3.9592188e-07
3.9592188e-07
3.9592188e-07
3.9592188e-07
3.9592188e-07
3.9592188e-07
3.9592188e-07
3.9592188e-07
3.9592188e-07
3.9592188e-07
3.9592188e-07
3.9592188e-07
3.9592188e-07
3.9592188e-07
3.9592188e-07
3.9592188e-07
3.9592188e-07
3.9592188e-07
3.9592188e-07
3.9592188e-07
3.9592188e-07
3.9592188e-07
3.9592188e-07
)
;
    }
    Airfoil
    {
        type            compressible::alphatWallFunction;
        value           nonuniform List<scalar> 
57
(
1.4535145e-05
1.4417226e-05
1.4321307e-05
1.4246188e-05
1.4188332e-05
1.4141165e-05
1.4096989e-05
1.4057424e-05
1.4023933e-05
1.3998779e-05
1.3972336e-05
1.4108161e-05
1.4233122e-05
1.4342693e-05
1.4448301e-05
1.4561167e-05
1.4677293e-05
1.4780837e-05
1.4862318e-05
1.4929424e-05
1.4990738e-05
1.5050802e-05
1.5113163e-05
1.5184076e-05
1.7201505e-05
1.688656e-05
1.6586393e-05
1.6300226e-05
1.6033678e-05
1.579878e-05
1.5613608e-05
1.54838e-05
1.539391e-05
1.6932602e-05
1.6731377e-05
1.6546278e-05
1.637644e-05
1.6221234e-05
1.60802e-05
1.5953919e-05
1.5844583e-05
1.5749214e-05
1.5667418e-05
1.4939779e-05
1.4945129e-05
1.4958111e-05
1.4977814e-05
1.5004536e-05
1.503975e-05
1.5082735e-05
1.5132361e-05
1.5191471e-05
1.5258164e-05
1.5333596e-05
1.5416537e-05
1.5504689e-05
1.5598003e-05
)
;
    }
    Outlet
    {
        type            zeroGradient;
    }
    Flap
    {
        type            compressible::alphatWallFunction;
        value           nonuniform List<scalar> 0();
    }
    procBoundary1to0
    {
        type            processor;
        value           nonuniform List<scalar> 
58
(
2.7772295e-08
2.7772295e-08
2.7772295e-08
2.7772295e-08
2.7772295e-08
2.7772295e-08
2.7772295e-08
2.7772295e-08
2.7772295e-08
2.7772295e-08
2.7772295e-08
2.7772294e-08
2.7772293e-08
2.7772291e-08
2.7772283e-08
2.7772283e-08
2.7772291e-08
2.7772293e-08
2.7772294e-08
2.7772295e-08
2.7772295e-08
2.7772295e-08
2.7772295e-08
2.7772295e-08
2.7772295e-08
2.7772295e-08
2.7772295e-08
2.7772295e-08
2.7772295e-08
2.7772264e-08
2.7772259e-08
2.7772252e-08
2.7772244e-08
2.7772232e-08
2.7772216e-08
2.7772194e-08
2.777216e-08
2.7772107e-08
2.7772015e-08
2.7771935e-08
2.7781487e-08
2.7781487e-08
2.7797395e-08
3.4073059e-08
2.7772264e-08
2.7772258e-08
2.7772252e-08
2.7772243e-08
2.7772231e-08
2.7772215e-08
2.7772192e-08
2.7772158e-08
2.7772103e-08
2.7772007e-08
2.7771734e-08
2.7767824e-08
2.7750807e-08
3.1408843e-08
)
;
    }
    procBoundary1to2
    {
        type            processor;
        value           nonuniform List<scalar> 
73
(
2.7772295e-08
2.7772295e-08
2.7772295e-08
2.7772295e-08
2.7772295e-08
2.7772295e-08
2.7772295e-08
2.7772295e-08
2.7772295e-08
2.7772295e-08
2.7772294e-08
2.7772293e-08
2.7772291e-08
2.7772282e-08
2.7571717e-08
2.4187514e-08
2.7772295e-08
2.7772295e-08
2.7772295e-08
2.7772295e-08
2.7772295e-08
2.7772295e-08
2.7772295e-08
2.7772295e-08
2.7772295e-08
2.7772295e-08
2.7772295e-08
2.7772295e-08
2.7772295e-08
2.7772295e-08
2.7772295e-08
2.7772295e-08
2.7772294e-08
2.7772294e-08
2.7772293e-08
2.7772293e-08
2.7772291e-08
2.7772291e-08
2.7772282e-08
2.7772282e-08
2.4032459e-08
2.7597577e-08
2.7705801e-08
2.7767001e-08
2.7771854e-08
2.7772077e-08
2.7772141e-08
2.7772182e-08
2.7772206e-08
2.7772224e-08
2.7772237e-08
2.7772246e-08
2.7772254e-08
2.777226e-08
2.7772261e-08
2.7772261e-08
2.7772255e-08
2.7772247e-08
2.7772247e-08
2.7772237e-08
2.7772224e-08
2.7772224e-08
2.7772206e-08
2.7772182e-08
2.7772182e-08
2.7772144e-08
2.777208e-08
2.777208e-08
2.7771891e-08
2.7767725e-08
2.7767725e-08
2.7720389e-08
2.7720389e-08
)
;
    }
}


// ************************************************************************* //
