/*--------------------------------*- C++ -*----------------------------------*\
| =========                 |                                                 |
| \\      /  F ield         | OpenFOAM: The Open Source CFD Toolbox           |
|  \\    /   O peration     | Version:  2206                                  |
|   \\  /    A nd           | Website:  www.openfoam.com                      |
|    \\/     M anipulation  |                                                 |
\*---------------------------------------------------------------------------*/
FoamFile
{
    version     2.0;
    format      ascii;
    arch        "LSB;label=32;scalar=64";
    class       volScalarField;
    location    "0.01";
    object      nut;
}
// * * * * * * * * * * * * * * * * * * * * * * * * * * * * * * * * * * * * * //

dimensions      [0 2 -1 0 0 0 0];

internalField   nonuniform List<scalar> 
1396
(
2.7772322e-08
2.7772322e-08
2.7772322e-08
2.7772322e-08
2.7772322e-08
2.7772322e-08
2.7772322e-08
2.7772322e-08
2.7772322e-08
2.7772322e-08
2.7772322e-08
2.7772322e-08
2.7772322e-08
2.7772322e-08
2.7772322e-08
2.7772321e-08
2.7772321e-08
2.7772321e-08
2.777232e-08
2.7772318e-08
2.777231e-08
2.7772322e-08
2.7772322e-08
2.7772322e-08
2.7772322e-08
2.7772322e-08
2.7772322e-08
2.7772322e-08
2.7772322e-08
2.7772321e-08
2.7772321e-08
2.7772321e-08
2.777232e-08
2.7772318e-08
2.7772309e-08
2.7772322e-08
2.7772322e-08
2.7772322e-08
2.7772322e-08
2.7772322e-08
2.7772322e-08
2.7772322e-08
2.7772322e-08
2.7772321e-08
2.7772321e-08
2.7772321e-08
2.777232e-08
2.7772318e-08
2.7772309e-08
2.7772322e-08
2.7772322e-08
2.7772322e-08
2.7772322e-08
2.7772322e-08
2.7772322e-08
2.7772322e-08
2.7772322e-08
2.7772321e-08
2.7772321e-08
2.7772321e-08
2.777232e-08
2.7772318e-08
2.7772309e-08
2.7772322e-08
2.7772322e-08
2.7772322e-08
2.7772322e-08
2.7772322e-08
2.7772322e-08
2.7772322e-08
2.7772322e-08
2.7772321e-08
2.7772321e-08
2.7772321e-08
2.777232e-08
2.7772318e-08
2.7772309e-08
2.7772322e-08
2.7772322e-08
2.7772322e-08
2.7772322e-08
2.7772322e-08
2.7772322e-08
2.7772322e-08
2.7772322e-08
2.7772321e-08
2.7772321e-08
2.7772321e-08
2.777232e-08
2.7772318e-08
2.7772309e-08
2.7772322e-08
2.7772322e-08
2.7772322e-08
2.7772322e-08
2.7772322e-08
2.7772322e-08
2.7772322e-08
2.7772322e-08
2.7772321e-08
2.7772321e-08
2.7772321e-08
2.777232e-08
2.7772318e-08
2.7772309e-08
2.7772322e-08
2.7772322e-08
2.7772322e-08
2.7772322e-08
2.7772322e-08
2.7772322e-08
2.7772322e-08
2.7772322e-08
2.7772321e-08
2.7772321e-08
2.7772321e-08
2.777232e-08
2.7772318e-08
2.7772309e-08
2.7772322e-08
2.7772322e-08
2.7772322e-08
2.7772322e-08
2.7772322e-08
2.7772322e-08
2.7772322e-08
2.7772322e-08
2.7772321e-08
2.7772321e-08
2.7772321e-08
2.777232e-08
2.7772318e-08
2.7772309e-08
2.7772322e-08
2.7772322e-08
2.7772322e-08
2.7772322e-08
2.7772322e-08
2.7772322e-08
2.7772322e-08
2.7772322e-08
2.7772321e-08
2.7772321e-08
2.7772321e-08
2.777232e-08
2.7772318e-08
2.7772309e-08
2.7772322e-08
2.7772322e-08
2.7772322e-08
2.7772322e-08
2.7772322e-08
2.7772322e-08
2.7772322e-08
2.7772322e-08
2.7772321e-08
2.7772321e-08
2.7772321e-08
2.777232e-08
2.7772318e-08
2.7772309e-08
2.7772322e-08
2.7772322e-08
2.7772322e-08
2.7772322e-08
2.7772322e-08
2.7772322e-08
2.7772322e-08
2.7772322e-08
2.7772321e-08
2.7772321e-08
2.7772321e-08
2.777232e-08
2.7772318e-08
2.7772309e-08
2.7772322e-08
2.7772322e-08
2.7772322e-08
2.7772322e-08
2.7772322e-08
2.7772322e-08
2.7772322e-08
2.7772322e-08
2.7772321e-08
2.7772321e-08
2.7772321e-08
2.777232e-08
2.7772318e-08
2.7772309e-08
2.7772322e-08
2.7772322e-08
2.7772322e-08
2.7772322e-08
2.7772322e-08
2.7772322e-08
2.7772322e-08
2.7772322e-08
2.7772321e-08
2.7772321e-08
2.7772321e-08
2.777232e-08
2.7772318e-08
2.7772309e-08
2.7772322e-08
2.7772322e-08
2.7772322e-08
2.7772322e-08
2.7772322e-08
2.7772322e-08
2.7772322e-08
2.7772322e-08
2.7772321e-08
2.7772321e-08
2.7772321e-08
2.777232e-08
2.7772318e-08
2.7772309e-08
2.7772322e-08
2.7772322e-08
2.7772322e-08
2.7772322e-08
2.7772322e-08
2.7772322e-08
2.7772322e-08
2.7772322e-08
2.7772321e-08
2.7772321e-08
2.7772321e-08
2.777232e-08
2.7772318e-08
2.7772309e-08
2.7772322e-08
2.7772322e-08
2.7772322e-08
2.7772322e-08
2.7772322e-08
2.7772322e-08
2.7772322e-08
2.7772322e-08
2.7772321e-08
2.7772321e-08
2.7772321e-08
2.777232e-08
2.7772318e-08
2.7772309e-08
2.7772308e-08
2.7772308e-08
2.7772308e-08
2.7772308e-08
2.7772308e-08
2.7772309e-08
2.7772309e-08
2.7772309e-08
2.7772309e-08
2.777231e-08
2.7772318e-08
2.7772318e-08
2.7772318e-08
2.7772318e-08
2.7772318e-08
2.7772318e-08
2.7772318e-08
2.7772318e-08
2.7772318e-08
2.7772318e-08
2.777232e-08
2.777232e-08
2.777232e-08
2.777232e-08
2.777232e-08
2.777232e-08
2.777232e-08
2.777232e-08
2.777232e-08
2.777232e-08
2.7772321e-08
2.7772321e-08
2.7772321e-08
2.7772321e-08
2.7772321e-08
2.7772321e-08
2.7772321e-08
2.7772321e-08
2.7772321e-08
2.7772321e-08
2.7772321e-08
2.7772321e-08
2.7772321e-08
2.7772321e-08
2.7772321e-08
2.7772321e-08
2.7772321e-08
2.7772321e-08
2.7772321e-08
2.7772321e-08
2.7772321e-08
2.7772321e-08
2.7772321e-08
2.7772321e-08
2.7772321e-08
2.7772321e-08
2.7772321e-08
2.7772321e-08
2.7772321e-08
2.7772321e-08
2.7772322e-08
2.7772322e-08
2.7772322e-08
2.7772322e-08
2.7772322e-08
2.7772322e-08
2.7772322e-08
2.7772322e-08
2.7772322e-08
2.7772322e-08
2.7772322e-08
2.7772322e-08
2.7772322e-08
2.7772322e-08
2.7772322e-08
2.7772322e-08
2.7772322e-08
2.7772322e-08
2.7772322e-08
2.7772322e-08
2.7772322e-08
2.7772322e-08
2.7772322e-08
2.7772322e-08
2.7772322e-08
2.7772322e-08
2.7772322e-08
2.7772322e-08
2.7772322e-08
2.7772322e-08
2.7772322e-08
2.7772322e-08
2.7772322e-08
2.7772322e-08
2.7772322e-08
2.7772322e-08
2.7772322e-08
2.7772322e-08
2.7772322e-08
2.7772322e-08
2.7772322e-08
2.7772322e-08
2.7772322e-08
2.7772322e-08
2.7772322e-08
2.7772322e-08
2.7772322e-08
2.7772322e-08
2.7772322e-08
2.7772322e-08
2.7772322e-08
2.7772322e-08
2.7772322e-08
2.7772322e-08
2.7772322e-08
2.7772322e-08
2.7772322e-08
2.7772322e-08
2.7772322e-08
2.7772322e-08
2.7772322e-08
2.7772322e-08
2.7772322e-08
2.7772322e-08
2.7772322e-08
2.7772322e-08
2.7772322e-08
2.7772322e-08
2.7772322e-08
2.7772322e-08
2.7772322e-08
2.7772322e-08
2.7772322e-08
2.7772322e-08
2.7772322e-08
2.7772322e-08
2.7772322e-08
2.7772322e-08
2.7772322e-08
2.7772322e-08
2.7772308e-08
2.7772318e-08
2.777232e-08
2.7772321e-08
2.7772321e-08
2.7772321e-08
2.7772322e-08
2.7772322e-08
2.7772322e-08
2.7772322e-08
2.7772322e-08
2.7772322e-08
2.7772322e-08
2.7772322e-08
2.7772308e-08
2.7772318e-08
2.777232e-08
2.7772321e-08
2.7772321e-08
2.7772321e-08
2.7772322e-08
2.7772322e-08
2.7772322e-08
2.7772322e-08
2.7772322e-08
2.7772322e-08
2.7772322e-08
2.7772322e-08
2.7772308e-08
2.7772318e-08
2.777232e-08
2.7772321e-08
2.7772321e-08
2.7772321e-08
2.7772322e-08
2.7772322e-08
2.7772322e-08
2.7772322e-08
2.7772322e-08
2.7772322e-08
2.7772322e-08
2.7772322e-08
2.7772308e-08
2.7772318e-08
2.777232e-08
2.7772321e-08
2.7772321e-08
2.7772321e-08
2.7772322e-08
2.7772322e-08
2.7772322e-08
2.7772322e-08
2.7772322e-08
2.7772322e-08
2.7772322e-08
2.7772322e-08
2.7772308e-08
2.7772318e-08
2.777232e-08
2.7772321e-08
2.7772321e-08
2.7772321e-08
2.7772322e-08
2.7772322e-08
2.7772322e-08
2.7772322e-08
2.7772322e-08
2.7772322e-08
2.7772322e-08
2.7772322e-08
2.7772308e-08
2.7772318e-08
2.777232e-08
2.7772321e-08
2.7772321e-08
2.7772321e-08
2.7772322e-08
2.7772322e-08
2.7772322e-08
2.7772322e-08
2.7772322e-08
2.7772322e-08
2.7772322e-08
2.7772322e-08
2.7772308e-08
2.7772318e-08
2.777232e-08
2.7772321e-08
2.7772321e-08
2.7772321e-08
2.7772322e-08
2.7772322e-08
2.7772322e-08
2.7772322e-08
2.7772322e-08
2.7772322e-08
2.7772322e-08
2.7772322e-08
2.7772308e-08
2.7772318e-08
2.777232e-08
2.7772321e-08
2.7772321e-08
2.7772321e-08
2.7772322e-08
2.7772322e-08
2.7772322e-08
2.7772322e-08
2.7772322e-08
2.7772322e-08
2.7772322e-08
2.7772322e-08
2.7772308e-08
2.7772318e-08
2.777232e-08
2.7772321e-08
2.7772321e-08
2.7772321e-08
2.7772322e-08
2.7772322e-08
2.7772322e-08
2.7772322e-08
2.7772322e-08
2.7772322e-08
2.7772322e-08
2.7772322e-08
2.7772308e-08
2.7772318e-08
2.777232e-08
2.7772321e-08
2.7772321e-08
2.7772321e-08
2.7772322e-08
2.7772322e-08
2.7772322e-08
2.7772322e-08
2.7772322e-08
2.7772322e-08
2.7772322e-08
2.7772322e-08
2.7772308e-08
2.7772318e-08
2.777232e-08
2.7772321e-08
2.7772321e-08
2.7772321e-08
2.7772322e-08
2.7772322e-08
2.7772322e-08
2.7772322e-08
2.7772322e-08
2.7772322e-08
2.7772322e-08
2.7772322e-08
2.7772308e-08
2.7772318e-08
2.777232e-08
2.7772321e-08
2.7772321e-08
2.7772321e-08
2.7772322e-08
2.7772322e-08
2.7772322e-08
2.7772322e-08
2.7772322e-08
2.7772322e-08
2.7772322e-08
2.7772322e-08
2.7772308e-08
2.7772318e-08
2.777232e-08
2.7772321e-08
2.7772321e-08
2.7772321e-08
2.7772322e-08
2.7772322e-08
2.7772322e-08
2.7772322e-08
2.7772322e-08
2.7772322e-08
2.7772322e-08
2.7772322e-08
2.7772308e-08
2.7772318e-08
2.777232e-08
2.7772321e-08
2.7772321e-08
2.7772321e-08
2.7772322e-08
2.7772322e-08
2.7772322e-08
2.7772322e-08
2.7772322e-08
2.7772322e-08
2.7772322e-08
2.7772322e-08
2.7772322e-08
2.7772322e-08
2.7772322e-08
2.7772322e-08
2.7772322e-08
2.7772322e-08
2.7772321e-08
2.7772321e-08
2.7772321e-08
2.777232e-08
2.7772318e-08
2.7772308e-08
2.7772322e-08
2.7772322e-08
2.7772322e-08
2.7772322e-08
2.7772321e-08
2.7772321e-08
2.7772321e-08
2.777232e-08
2.7772318e-08
2.7772309e-08
2.7772322e-08
2.7772322e-08
2.7772322e-08
2.7772321e-08
2.7772321e-08
2.7772321e-08
2.777232e-08
2.7772318e-08
2.7772309e-08
2.7772322e-08
2.7772321e-08
2.7772321e-08
2.7772321e-08
2.777232e-08
2.7772318e-08
2.7772309e-08
2.7772321e-08
2.7772321e-08
2.7772321e-08
2.777232e-08
2.7772318e-08
2.7772309e-08
2.7772321e-08
2.777232e-08
2.7772318e-08
2.7772309e-08
2.777232e-08
2.7772318e-08
2.7772309e-08
2.7772318e-08
2.7772309e-08
2.7772309e-08
2.6534342e-08
2.63502e-08
2.6267521e-08
2.6216358e-08
2.6216512e-08
2.6249785e-08
2.6288537e-08
2.6334135e-08
2.6385893e-08
2.6447838e-08
2.7745492e-08
2.7742912e-08
2.7742647e-08
2.773922e-08
2.7736043e-08
2.7733108e-08
2.7731172e-08
2.7729963e-08
2.7729635e-08
2.7728536e-08
2.7725359e-08
2.7723994e-08
2.7722976e-08
2.772229e-08
2.7722263e-08
2.7722161e-08
2.7721868e-08
2.772153e-08
2.7721126e-08
2.7721375e-08
2.7768211e-08
2.7768013e-08
2.7767854e-08
2.7767751e-08
2.7767695e-08
2.7767669e-08
2.776765e-08
2.7767632e-08
2.7767586e-08
2.7767458e-08
2.7771901e-08
2.7771895e-08
2.7771887e-08
2.7771882e-08
2.777188e-08
2.7771874e-08
2.7771869e-08
2.7771863e-08
2.777186e-08
2.7771857e-08
2.7772099e-08
2.7772098e-08
2.7772095e-08
2.7772092e-08
2.777209e-08
2.7772087e-08
2.7772085e-08
2.7772084e-08
2.777208e-08
2.777208e-08
2.7772165e-08
2.7772165e-08
2.7772163e-08
2.7772159e-08
2.7772159e-08
2.7772158e-08
2.7772155e-08
2.7772154e-08
2.7772153e-08
2.7772151e-08
2.7772205e-08
2.7772204e-08
2.7772202e-08
2.7772201e-08
2.77722e-08
2.7772199e-08
2.7772198e-08
2.7772196e-08
2.7772196e-08
2.7772194e-08
2.777223e-08
2.777223e-08
2.7772229e-08
2.7772228e-08
2.7772228e-08
2.7772226e-08
2.7772225e-08
2.7772225e-08
2.7772224e-08
2.7772223e-08
2.7772248e-08
2.7772249e-08
2.7772248e-08
2.7772247e-08
2.7772247e-08
2.7772246e-08
2.7772245e-08
2.7772245e-08
2.7772244e-08
2.7772243e-08
2.7772262e-08
2.7772262e-08
2.7772262e-08
2.7772261e-08
2.7772261e-08
2.777226e-08
2.777226e-08
2.7772259e-08
2.7772258e-08
2.7772258e-08
2.7772272e-08
2.7772272e-08
2.7772272e-08
2.7772272e-08
2.7772271e-08
2.777227e-08
2.777227e-08
2.7772269e-08
2.7772269e-08
2.7772269e-08
2.777228e-08
2.777228e-08
2.777228e-08
2.777228e-08
2.7772279e-08
2.7772278e-08
2.7772278e-08
2.7772278e-08
2.7772278e-08
2.7772277e-08
2.7772286e-08
2.7772286e-08
2.7772286e-08
2.7772286e-08
2.7772285e-08
2.7772285e-08
2.7772285e-08
2.7772284e-08
2.7772284e-08
2.7772284e-08
2.6619804e-08
2.6888936e-08
2.7182334e-08
2.7431881e-08
2.7663039e-08
2.7914201e-08
2.8205867e-08
2.8494763e-08
2.8720665e-08
2.888776e-08
2.9023154e-08
2.9147901e-08
2.9247862e-08
2.9331528e-08
2.7730792e-08
2.7744373e-08
2.7741424e-08
2.7739144e-08
2.7737843e-08
2.7737298e-08
2.7736844e-08
2.7736956e-08
2.7736611e-08
2.7735448e-08
2.7735596e-08
2.7735846e-08
2.7735382e-08
2.7734036e-08
2.7727071e-08
2.7730256e-08
2.7732182e-08
2.7734131e-08
2.7736129e-08
2.7738316e-08
2.7740565e-08
2.774252e-08
2.7743983e-08
2.7745151e-08
2.7746238e-08
2.7747226e-08
2.7748195e-08
2.7749442e-08
2.7767457e-08
2.7768054e-08
2.7768383e-08
2.7768669e-08
2.7768942e-08
2.7769236e-08
2.7769524e-08
2.7769768e-08
2.7769936e-08
2.777006e-08
2.7770169e-08
2.7770272e-08
2.7770369e-08
2.7770493e-08
2.7771856e-08
2.7771882e-08
2.7771888e-08
2.7771896e-08
2.7771905e-08
2.7771917e-08
2.7771923e-08
2.7771929e-08
2.7771934e-08
2.7771939e-08
2.7771944e-08
2.7771948e-08
2.777195e-08
2.7771955e-08
2.7772076e-08
2.777208e-08
2.7772082e-08
2.7772082e-08
2.7772084e-08
2.7772087e-08
2.7772087e-08
2.7772088e-08
2.7772089e-08
2.777209e-08
2.7772091e-08
2.7772093e-08
2.7772092e-08
2.7772094e-08
2.7772151e-08
2.7772152e-08
2.7772153e-08
2.7772153e-08
2.7772154e-08
2.7772156e-08
2.7772155e-08
2.7772156e-08
2.7772156e-08
2.7772157e-08
2.7772158e-08
2.7772159e-08
2.7772159e-08
2.777216e-08
2.7772194e-08
2.7772194e-08
2.7772195e-08
2.7772196e-08
2.7772196e-08
2.7772197e-08
2.7772197e-08
2.7772197e-08
2.7772198e-08
2.7772198e-08
2.7772199e-08
2.77722e-08
2.7772201e-08
2.77722e-08
2.7772222e-08
2.7772223e-08
2.7772223e-08
2.7772224e-08
2.7772224e-08
2.7772225e-08
2.7772225e-08
2.7772225e-08
2.7772225e-08
2.7772226e-08
2.7772227e-08
2.7772227e-08
2.7772228e-08
2.7772227e-08
2.7772242e-08
2.7772243e-08
2.7772243e-08
2.7772244e-08
2.7772244e-08
2.7772244e-08
2.7772244e-08
2.7772244e-08
2.7772245e-08
2.7772245e-08
2.7772246e-08
2.7772246e-08
2.7772247e-08
2.7772246e-08
2.7772257e-08
2.7772258e-08
2.7772258e-08
2.7772258e-08
2.7772258e-08
2.7772259e-08
2.7772258e-08
2.7772259e-08
2.7772259e-08
2.7772259e-08
2.777226e-08
2.777226e-08
2.777226e-08
2.777226e-08
2.7772268e-08
2.7772269e-08
2.7772269e-08
2.7772269e-08
2.7772269e-08
2.7772269e-08
2.7772269e-08
2.7772269e-08
2.7772269e-08
2.777227e-08
2.777227e-08
2.777227e-08
2.7772271e-08
2.7772271e-08
2.7772277e-08
2.7772277e-08
2.7772277e-08
2.7772277e-08
2.7772277e-08
2.7772277e-08
2.7772277e-08
2.7772277e-08
2.7772278e-08
2.7772278e-08
2.7772278e-08
2.7772278e-08
2.7772279e-08
2.7772279e-08
2.7772283e-08
2.7772284e-08
2.7772284e-08
2.7772284e-08
2.7772284e-08
2.7772284e-08
2.7772284e-08
2.7772284e-08
2.7772284e-08
2.7772284e-08
2.7772284e-08
2.7772285e-08
2.7772285e-08
2.7772285e-08
2.777229e-08
2.7772284e-08
2.7772277e-08
2.7772269e-08
2.7772257e-08
2.777224e-08
2.7772217e-08
2.7772183e-08
2.7772127e-08
2.7772032e-08
2.7771925e-08
2.7772288e-08
2.7772283e-08
2.7772276e-08
2.7772266e-08
2.7772254e-08
2.7772238e-08
2.7772214e-08
2.7772178e-08
2.7772121e-08
2.7772023e-08
2.7771934e-08
2.7779003e-08
2.778073e-08
3.3204739e-08
2.7772287e-08
2.7772281e-08
2.7772274e-08
2.7772265e-08
2.7772252e-08
2.7772235e-08
2.7772211e-08
2.7772174e-08
2.7772115e-08
2.7772014e-08
2.7771839e-08
2.7773043e-08
2.7780774e-08
3.2836117e-08
2.7772286e-08
2.7772281e-08
2.7772273e-08
2.7772263e-08
2.777225e-08
2.7772232e-08
2.7772208e-08
2.777217e-08
2.777211e-08
2.7772005e-08
2.7771795e-08
2.7771246e-08
2.7772183e-08
3.2396686e-08
2.7772286e-08
2.777228e-08
2.7772272e-08
2.7772262e-08
2.7772249e-08
2.777223e-08
2.7772206e-08
2.7772167e-08
2.7772105e-08
2.7771997e-08
2.7771721e-08
2.7768635e-08
2.7761932e-08
3.1870637e-08
2.7772285e-08
2.7772279e-08
2.7772271e-08
2.7772261e-08
2.7772248e-08
2.7772229e-08
2.7772204e-08
2.7772165e-08
2.7772102e-08
2.7771991e-08
2.7771599e-08
2.7765127e-08
2.7751562e-08
3.1289791e-08
2.7772285e-08
2.7772279e-08
2.7772271e-08
2.7772261e-08
2.7772247e-08
2.7772228e-08
2.7772203e-08
2.7772163e-08
2.77721e-08
2.7771984e-08
2.7771436e-08
2.776138e-08
2.7743368e-08
3.0720926e-08
2.7772285e-08
2.7772278e-08
2.777227e-08
2.777226e-08
2.7772246e-08
2.7772228e-08
2.7772201e-08
2.7772162e-08
2.7772098e-08
2.7771979e-08
2.7771238e-08
2.7758083e-08
2.7736067e-08
3.0269731e-08
2.7772285e-08
2.7772278e-08
2.777227e-08
2.777226e-08
2.7772246e-08
2.7772227e-08
2.77722e-08
2.7772161e-08
2.7772099e-08
2.7771976e-08
2.7771073e-08
2.7755665e-08
2.7733698e-08
2.9914554e-08
2.7772285e-08
2.7772278e-08
2.7772271e-08
2.777226e-08
2.7772246e-08
2.7772227e-08
2.77722e-08
2.777216e-08
2.7772095e-08
2.777197e-08
2.777094e-08
2.7753796e-08
2.7729763e-08
2.9589148e-08
2.777229e-08
2.7772284e-08
2.7772277e-08
2.7772269e-08
2.7772257e-08
2.777224e-08
2.7772217e-08
2.7772182e-08
2.7772127e-08
2.7772029e-08
2.7771739e-08
2.7767601e-08
2.775927e-08
3.1532719e-08
2.7772289e-08
2.7772284e-08
2.7772277e-08
2.7772268e-08
2.7772256e-08
2.7772239e-08
2.7772215e-08
2.777218e-08
2.7772123e-08
2.7772023e-08
2.777168e-08
2.7766248e-08
2.7754816e-08
3.1318247e-08
2.7772288e-08
2.7772283e-08
2.7772276e-08
2.7772266e-08
2.7772254e-08
2.7772238e-08
2.7772214e-08
2.7772178e-08
2.777212e-08
2.7772017e-08
2.7771615e-08
2.7764841e-08
2.7750329e-08
3.1092251e-08
2.7772288e-08
2.7772282e-08
2.7772275e-08
2.7772265e-08
2.7772253e-08
2.7772236e-08
2.7772212e-08
2.7772176e-08
2.7772118e-08
2.7772012e-08
2.777154e-08
2.7763351e-08
2.7745855e-08
3.0859509e-08
2.7772287e-08
2.7772282e-08
2.7772274e-08
2.7772265e-08
2.7772252e-08
2.7772235e-08
2.777221e-08
2.7772174e-08
2.7772115e-08
2.7772008e-08
2.7771456e-08
2.7761769e-08
2.7741425e-08
3.0616084e-08
2.7772287e-08
2.7772281e-08
2.7772274e-08
2.7772264e-08
2.7772251e-08
2.7772234e-08
2.7772209e-08
2.7772172e-08
2.7772114e-08
2.7772003e-08
2.7771359e-08
2.7760085e-08
2.7737425e-08
3.0357553e-08
2.7772287e-08
2.7772281e-08
2.7772274e-08
2.7772264e-08
2.7772251e-08
2.7772233e-08
2.7772208e-08
2.777217e-08
2.7772113e-08
2.7772e-08
2.7771249e-08
2.7758317e-08
2.7733568e-08
3.0084546e-08
2.7772287e-08
2.7772281e-08
2.7772273e-08
2.7772264e-08
2.7772251e-08
2.7772233e-08
2.7772208e-08
2.777217e-08
2.777211e-08
2.7771997e-08
2.777113e-08
2.7756511e-08
2.7730159e-08
2.9801519e-08
2.7772287e-08
2.7772281e-08
2.7772273e-08
2.7772264e-08
2.7772251e-08
2.7772233e-08
2.7772207e-08
2.777217e-08
2.777211e-08
2.7771995e-08
2.7770991e-08
2.7754574e-08
2.7726918e-08
2.9482321e-08
2.7772287e-08
2.7772281e-08
2.7772274e-08
2.7772264e-08
2.7772251e-08
2.7772233e-08
2.7772208e-08
2.777217e-08
2.7772109e-08
2.7771988e-08
2.7770815e-08
2.7752585e-08
2.772227e-08
2.9133347e-08
2.7772287e-08
2.7772287e-08
2.7772287e-08
2.7772287e-08
2.7772287e-08
2.7772287e-08
2.7772287e-08
2.7772281e-08
2.7772281e-08
2.7772281e-08
2.7772281e-08
2.7772281e-08
2.7772281e-08
2.7772281e-08
2.7772281e-08
2.7772273e-08
2.7772274e-08
2.7772273e-08
2.7772274e-08
2.7772274e-08
2.7772274e-08
2.7772274e-08
2.7772274e-08
2.7772264e-08
2.7772264e-08
2.7772264e-08
2.7772264e-08
2.7772264e-08
2.7772264e-08
2.7772264e-08
2.7772264e-08
2.7772264e-08
2.7772251e-08
2.7772251e-08
2.7772251e-08
2.7772251e-08
2.7772251e-08
2.7772251e-08
2.7772251e-08
2.7772251e-08
2.7772251e-08
2.7772233e-08
2.7772233e-08
2.7772233e-08
2.7772233e-08
2.7772233e-08
2.7772233e-08
2.7772233e-08
2.7772233e-08
2.7772233e-08
2.7772234e-08
2.7772207e-08
2.7772207e-08
2.7772207e-08
2.7772207e-08
2.7772207e-08
2.7772207e-08
2.7772207e-08
2.7772207e-08
2.7772208e-08
2.7772208e-08
2.7772169e-08
2.7772169e-08
2.7772168e-08
2.7772168e-08
2.7772168e-08
2.7772168e-08
2.7772168e-08
2.7772168e-08
2.7772169e-08
2.7772169e-08
2.777217e-08
2.7772105e-08
2.7772105e-08
2.7772105e-08
2.7772105e-08
2.7772104e-08
2.7772105e-08
2.7772105e-08
2.7772105e-08
2.7772106e-08
2.7772107e-08
2.7772108e-08
2.7771943e-08
2.7771945e-08
2.7771946e-08
2.7771948e-08
2.777195e-08
2.7771953e-08
2.7771956e-08
2.777196e-08
2.7771964e-08
2.7771968e-08
2.7771973e-08
2.7771978e-08
2.7769034e-08
2.7769133e-08
2.7769238e-08
2.7769356e-08
2.7769488e-08
2.7769618e-08
2.7769762e-08
2.7769907e-08
2.7770056e-08
2.7770206e-08
2.7770349e-08
2.7770491e-08
2.7737563e-08
2.7738046e-08
2.7738625e-08
2.7739314e-08
2.7740136e-08
2.7741101e-08
2.7742136e-08
2.7743306e-08
2.7744561e-08
2.7745919e-08
2.7747365e-08
2.7748808e-08
2.775025e-08
2.7717199e-08
2.771582e-08
2.7715609e-08
2.7715526e-08
2.7715794e-08
2.7716243e-08
2.7717327e-08
2.7717839e-08
2.7719267e-08
2.7720416e-08
2.7721584e-08
2.7722642e-08
2.7723873e-08
2.7725582e-08
2.679749e-08
2.6865807e-08
2.6971854e-08
2.7089892e-08
2.7218567e-08
2.7357528e-08
2.7521855e-08
2.767844e-08
2.7857052e-08
2.8039743e-08
2.8233286e-08
2.843773e-08
2.8638075e-08
2.8803352e-08
)
;

boundaryField
{
    Side
    {
        type            empty;
    }
    Inlet
    {
        type            inletOutlet;
        inletValue      uniform 3.9592226e-07;
        value           nonuniform List<scalar> 
42
(
2.7772322e-08
2.7772322e-08
2.7772322e-08
2.7772322e-08
2.7772322e-08
2.7772322e-08
2.7772322e-08
2.7772322e-08
2.7772322e-08
2.7772322e-08
2.7772322e-08
2.7772322e-08
2.7772322e-08
2.7772322e-08
2.7772322e-08
2.7772322e-08
2.7772322e-08
2.7772322e-08
3.9592226e-07
3.9592226e-07
3.9592226e-07
3.9592226e-07
3.9592226e-07
3.9592226e-07
3.9592226e-07
3.9592226e-07
3.9592226e-07
3.9592226e-07
3.9592226e-07
3.9592226e-07
3.9592226e-07
3.9592226e-07
3.9592226e-07
3.9592226e-07
3.9592226e-07
3.9592226e-07
3.9592226e-07
3.9592226e-07
3.9592226e-07
3.9592226e-07
3.9592226e-07
3.9592226e-07
)
;
    }
    Airfoil
    {
        type            nutUSpaldingWallFunction;
        value           nonuniform List<scalar> 
57
(
1.4332331e-05
1.4258901e-05
1.4193197e-05
1.4132333e-05
1.4074846e-05
1.4018891e-05
1.3961603e-05
1.3905377e-05
1.3850796e-05
1.3799095e-05
1.3730141e-05
1.3765421e-05
1.378833e-05
1.3805452e-05
1.3822611e-05
1.3840454e-05
1.3854196e-05
1.3860455e-05
1.3863534e-05
1.3869646e-05
1.3879701e-05
1.3891598e-05
1.3906252e-05
1.3920255e-05
1.4394545e-05
1.4252467e-05
1.4140657e-05
1.4063078e-05
1.4017104e-05
1.3994936e-05
1.398584e-05
1.39893e-05
1.4015952e-05
1.4701502e-05
1.4605013e-05
1.4521996e-05
1.4453e-05
1.439909e-05
1.4361429e-05
1.434071e-05
1.4338183e-05
1.4358613e-05
1.4403598e-05
1.455426e-05
1.452758e-05
1.4501856e-05
1.4477475e-05
1.4455776e-05
1.443792e-05
1.4420854e-05
1.4409879e-05
1.4402097e-05
1.4398934e-05
1.4400443e-05
1.4405893e-05
1.4416089e-05
1.4433684e-05
)
;
    }
    Outlet
    {
        type            zeroGradient;
    }
    Flap
    {
        type            nutUSpaldingWallFunction;
        value           nonuniform List<scalar> 0();
    }
    procBoundary1to0
    {
        type            processor;
        value           nonuniform List<scalar> 
58
(
2.7772322e-08
2.7772322e-08
2.7772322e-08
2.7772322e-08
2.7772322e-08
2.7772322e-08
2.7772322e-08
2.7772322e-08
2.7772322e-08
2.7772321e-08
2.7772321e-08
2.7772321e-08
2.777232e-08
2.7772318e-08
2.777231e-08
2.777231e-08
2.7772318e-08
2.777232e-08
2.7772321e-08
2.7772321e-08
2.7772321e-08
2.7772322e-08
2.7772322e-08
2.7772322e-08
2.7772322e-08
2.7772322e-08
2.7772322e-08
2.7772322e-08
2.7772322e-08
2.7772291e-08
2.7772285e-08
2.7772279e-08
2.777227e-08
2.7772259e-08
2.7772243e-08
2.777222e-08
2.7772187e-08
2.7772133e-08
2.7772042e-08
2.7771934e-08
2.7778589e-08
2.7778589e-08
2.7785231e-08
3.3535452e-08
2.777229e-08
2.7772285e-08
2.7772278e-08
2.7772269e-08
2.7772258e-08
2.7772242e-08
2.7772219e-08
2.7772185e-08
2.777213e-08
2.7772034e-08
2.7771785e-08
2.7768865e-08
2.7763314e-08
3.1771079e-08
)
;
    }
    procBoundary1to2
    {
        type            processor;
        value           nonuniform List<scalar> 
73
(
2.7772322e-08
2.7772322e-08
2.7772322e-08
2.7772322e-08
2.7772322e-08
2.7772322e-08
2.7772322e-08
2.7772322e-08
2.7772321e-08
2.7772321e-08
2.7772321e-08
2.777232e-08
2.7772318e-08
2.7772309e-08
2.7719525e-08
2.6701176e-08
2.7772322e-08
2.7772322e-08
2.7772322e-08
2.7772322e-08
2.7772322e-08
2.7772322e-08
2.7772322e-08
2.7772322e-08
2.7772322e-08
2.7772322e-08
2.7772322e-08
2.7772322e-08
2.7772322e-08
2.7772321e-08
2.7772321e-08
2.7772321e-08
2.7772321e-08
2.7772321e-08
2.777232e-08
2.777232e-08
2.7772318e-08
2.7772318e-08
2.7772309e-08
2.7772309e-08
2.6629387e-08
2.7746162e-08
2.7727342e-08
2.7768462e-08
2.7771915e-08
2.7772105e-08
2.7772168e-08
2.7772208e-08
2.7772233e-08
2.7772251e-08
2.7772263e-08
2.7772273e-08
2.7772281e-08
2.7772287e-08
2.7772287e-08
2.7772287e-08
2.7772281e-08
2.7772274e-08
2.7772274e-08
2.7772264e-08
2.7772251e-08
2.7772251e-08
2.7772233e-08
2.7772208e-08
2.7772208e-08
2.777217e-08
2.7772107e-08
2.7772107e-08
2.7771944e-08
2.776896e-08
2.776896e-08
2.7737312e-08
2.7737312e-08
)
;
    }
}


// ************************************************************************* //
