/*--------------------------------*- C++ -*----------------------------------*\
| =========                 |                                                 |
| \\      /  F ield         | OpenFOAM: The Open Source CFD Toolbox           |
|  \\    /   O peration     | Version:  2206                                  |
|   \\  /    A nd           | Website:  www.openfoam.com                      |
|    \\/     M anipulation  |                                                 |
\*---------------------------------------------------------------------------*/
FoamFile
{
    version     2.0;
    format      ascii;
    arch        "LSB;label=32;scalar=64";
    class       volScalarField;
    location    "0.01";
    object      nuTilda;
}
// * * * * * * * * * * * * * * * * * * * * * * * * * * * * * * * * * * * * * //

dimensions      [0 2 -1 0 0 0 0];

internalField   nonuniform List<scalar> 
1396
(
3.9592226e-07
3.9592226e-07
3.9592226e-07
3.9592226e-07
3.9592226e-07
3.9592226e-07
3.9592226e-07
3.9592226e-07
3.9592226e-07
3.9592226e-07
3.9592226e-07
3.9592226e-07
3.9592226e-07
3.9592226e-07
3.9592226e-07
3.9592226e-07
3.9592226e-07
3.9592226e-07
3.9592225e-07
3.9592224e-07
3.9592221e-07
3.9592226e-07
3.9592226e-07
3.9592226e-07
3.9592226e-07
3.9592226e-07
3.9592226e-07
3.9592226e-07
3.9592226e-07
3.9592226e-07
3.9592226e-07
3.9592226e-07
3.9592225e-07
3.9592224e-07
3.9592221e-07
3.9592226e-07
3.9592226e-07
3.9592226e-07
3.9592226e-07
3.9592226e-07
3.9592226e-07
3.9592226e-07
3.9592226e-07
3.9592226e-07
3.9592226e-07
3.9592226e-07
3.9592225e-07
3.9592224e-07
3.9592221e-07
3.9592226e-07
3.9592226e-07
3.9592226e-07
3.9592226e-07
3.9592226e-07
3.9592226e-07
3.9592226e-07
3.9592226e-07
3.9592226e-07
3.9592226e-07
3.9592226e-07
3.9592225e-07
3.9592224e-07
3.9592221e-07
3.9592226e-07
3.9592226e-07
3.9592226e-07
3.9592226e-07
3.9592226e-07
3.9592226e-07
3.9592226e-07
3.9592226e-07
3.9592226e-07
3.9592226e-07
3.9592226e-07
3.9592225e-07
3.9592224e-07
3.9592221e-07
3.9592226e-07
3.9592226e-07
3.9592226e-07
3.9592226e-07
3.9592226e-07
3.9592226e-07
3.9592226e-07
3.9592226e-07
3.9592226e-07
3.9592226e-07
3.9592226e-07
3.9592225e-07
3.9592224e-07
3.9592221e-07
3.9592226e-07
3.9592226e-07
3.9592226e-07
3.9592226e-07
3.9592226e-07
3.9592226e-07
3.9592226e-07
3.9592226e-07
3.9592226e-07
3.9592226e-07
3.9592226e-07
3.9592225e-07
3.9592224e-07
3.9592221e-07
3.9592226e-07
3.9592226e-07
3.9592226e-07
3.9592226e-07
3.9592226e-07
3.9592226e-07
3.9592226e-07
3.9592226e-07
3.9592226e-07
3.9592226e-07
3.9592226e-07
3.9592225e-07
3.9592224e-07
3.9592221e-07
3.9592226e-07
3.9592226e-07
3.9592226e-07
3.9592226e-07
3.9592226e-07
3.9592226e-07
3.9592226e-07
3.9592226e-07
3.9592226e-07
3.9592226e-07
3.9592226e-07
3.9592225e-07
3.9592224e-07
3.9592221e-07
3.9592226e-07
3.9592226e-07
3.9592226e-07
3.9592226e-07
3.9592226e-07
3.9592226e-07
3.9592226e-07
3.9592226e-07
3.9592226e-07
3.9592226e-07
3.9592226e-07
3.9592225e-07
3.9592224e-07
3.9592221e-07
3.9592226e-07
3.9592226e-07
3.9592226e-07
3.9592226e-07
3.9592226e-07
3.9592226e-07
3.9592226e-07
3.9592226e-07
3.9592226e-07
3.9592226e-07
3.9592226e-07
3.9592225e-07
3.9592224e-07
3.9592221e-07
3.9592226e-07
3.9592226e-07
3.9592226e-07
3.9592226e-07
3.9592226e-07
3.9592226e-07
3.9592226e-07
3.9592226e-07
3.9592226e-07
3.9592226e-07
3.9592226e-07
3.9592225e-07
3.9592224e-07
3.9592221e-07
3.9592226e-07
3.9592226e-07
3.9592226e-07
3.9592226e-07
3.9592226e-07
3.9592226e-07
3.9592226e-07
3.9592226e-07
3.9592226e-07
3.9592226e-07
3.9592226e-07
3.9592225e-07
3.9592224e-07
3.9592221e-07
3.9592226e-07
3.9592226e-07
3.9592226e-07
3.9592226e-07
3.9592226e-07
3.9592226e-07
3.9592226e-07
3.9592226e-07
3.9592226e-07
3.9592226e-07
3.9592226e-07
3.9592225e-07
3.9592224e-07
3.9592221e-07
3.9592226e-07
3.9592226e-07
3.9592226e-07
3.9592226e-07
3.9592226e-07
3.9592226e-07
3.9592226e-07
3.9592226e-07
3.9592226e-07
3.9592226e-07
3.9592226e-07
3.9592225e-07
3.9592224e-07
3.9592221e-07
3.9592226e-07
3.9592226e-07
3.9592226e-07
3.9592226e-07
3.9592226e-07
3.9592226e-07
3.9592226e-07
3.9592226e-07
3.9592226e-07
3.9592226e-07
3.9592226e-07
3.9592225e-07
3.9592224e-07
3.9592221e-07
3.9592226e-07
3.9592226e-07
3.9592226e-07
3.9592226e-07
3.9592226e-07
3.9592226e-07
3.9592226e-07
3.9592226e-07
3.9592226e-07
3.9592226e-07
3.9592226e-07
3.9592225e-07
3.9592224e-07
3.9592221e-07
3.9592221e-07
3.9592221e-07
3.9592221e-07
3.9592221e-07
3.9592221e-07
3.9592221e-07
3.9592221e-07
3.9592221e-07
3.9592221e-07
3.9592221e-07
3.9592224e-07
3.9592224e-07
3.9592224e-07
3.9592224e-07
3.9592224e-07
3.9592224e-07
3.9592224e-07
3.9592224e-07
3.9592224e-07
3.9592224e-07
3.9592225e-07
3.9592225e-07
3.9592225e-07
3.9592225e-07
3.9592225e-07
3.9592225e-07
3.9592225e-07
3.9592225e-07
3.9592225e-07
3.9592225e-07
3.9592226e-07
3.9592226e-07
3.9592226e-07
3.9592226e-07
3.9592226e-07
3.9592226e-07
3.9592226e-07
3.9592226e-07
3.9592226e-07
3.9592226e-07
3.9592226e-07
3.9592226e-07
3.9592226e-07
3.9592226e-07
3.9592226e-07
3.9592226e-07
3.9592226e-07
3.9592226e-07
3.9592226e-07
3.9592226e-07
3.9592226e-07
3.9592226e-07
3.9592226e-07
3.9592226e-07
3.9592226e-07
3.9592226e-07
3.9592226e-07
3.9592226e-07
3.9592226e-07
3.9592226e-07
3.9592226e-07
3.9592226e-07
3.9592226e-07
3.9592226e-07
3.9592226e-07
3.9592226e-07
3.9592226e-07
3.9592226e-07
3.9592226e-07
3.9592226e-07
3.9592226e-07
3.9592226e-07
3.9592226e-07
3.9592226e-07
3.9592226e-07
3.9592226e-07
3.9592226e-07
3.9592226e-07
3.9592226e-07
3.9592226e-07
3.9592226e-07
3.9592226e-07
3.9592226e-07
3.9592226e-07
3.9592226e-07
3.9592226e-07
3.9592226e-07
3.9592226e-07
3.9592226e-07
3.9592226e-07
3.9592226e-07
3.9592226e-07
3.9592226e-07
3.9592226e-07
3.9592226e-07
3.9592226e-07
3.9592226e-07
3.9592226e-07
3.9592226e-07
3.9592226e-07
3.9592226e-07
3.9592226e-07
3.9592226e-07
3.9592226e-07
3.9592226e-07
3.9592226e-07
3.9592226e-07
3.9592226e-07
3.9592226e-07
3.9592226e-07
3.9592226e-07
3.9592226e-07
3.9592226e-07
3.9592226e-07
3.9592226e-07
3.9592226e-07
3.9592226e-07
3.9592226e-07
3.9592226e-07
3.9592226e-07
3.9592226e-07
3.9592226e-07
3.9592226e-07
3.9592226e-07
3.9592226e-07
3.9592226e-07
3.9592226e-07
3.9592226e-07
3.9592226e-07
3.9592226e-07
3.9592226e-07
3.9592226e-07
3.9592226e-07
3.9592226e-07
3.9592226e-07
3.9592226e-07
3.9592226e-07
3.9592226e-07
3.9592226e-07
3.9592226e-07
3.9592221e-07
3.9592224e-07
3.9592225e-07
3.9592226e-07
3.9592226e-07
3.9592226e-07
3.9592226e-07
3.9592226e-07
3.9592226e-07
3.9592226e-07
3.9592226e-07
3.9592226e-07
3.9592226e-07
3.9592226e-07
3.9592221e-07
3.9592224e-07
3.9592225e-07
3.9592226e-07
3.9592226e-07
3.9592226e-07
3.9592226e-07
3.9592226e-07
3.9592226e-07
3.9592226e-07
3.9592226e-07
3.9592226e-07
3.9592226e-07
3.9592226e-07
3.9592221e-07
3.9592224e-07
3.9592225e-07
3.9592226e-07
3.9592226e-07
3.9592226e-07
3.9592226e-07
3.9592226e-07
3.9592226e-07
3.9592226e-07
3.9592226e-07
3.9592226e-07
3.9592226e-07
3.9592226e-07
3.9592221e-07
3.9592224e-07
3.9592225e-07
3.9592226e-07
3.9592226e-07
3.9592226e-07
3.9592226e-07
3.9592226e-07
3.9592226e-07
3.9592226e-07
3.9592226e-07
3.9592226e-07
3.9592226e-07
3.9592226e-07
3.9592221e-07
3.9592224e-07
3.9592225e-07
3.9592226e-07
3.9592226e-07
3.9592226e-07
3.9592226e-07
3.9592226e-07
3.9592226e-07
3.9592226e-07
3.9592226e-07
3.9592226e-07
3.9592226e-07
3.9592226e-07
3.9592221e-07
3.9592224e-07
3.9592225e-07
3.9592226e-07
3.9592226e-07
3.9592226e-07
3.9592226e-07
3.9592226e-07
3.9592226e-07
3.9592226e-07
3.9592226e-07
3.9592226e-07
3.9592226e-07
3.9592226e-07
3.9592221e-07
3.9592224e-07
3.9592225e-07
3.9592226e-07
3.9592226e-07
3.9592226e-07
3.9592226e-07
3.9592226e-07
3.9592226e-07
3.9592226e-07
3.9592226e-07
3.9592226e-07
3.9592226e-07
3.9592226e-07
3.9592221e-07
3.9592224e-07
3.9592225e-07
3.9592226e-07
3.9592226e-07
3.9592226e-07
3.9592226e-07
3.9592226e-07
3.9592226e-07
3.9592226e-07
3.9592226e-07
3.9592226e-07
3.9592226e-07
3.9592226e-07
3.9592221e-07
3.9592224e-07
3.9592225e-07
3.9592226e-07
3.9592226e-07
3.9592226e-07
3.9592226e-07
3.9592226e-07
3.9592226e-07
3.9592226e-07
3.9592226e-07
3.9592226e-07
3.9592226e-07
3.9592226e-07
3.9592221e-07
3.9592224e-07
3.9592225e-07
3.9592226e-07
3.9592226e-07
3.9592226e-07
3.9592226e-07
3.9592226e-07
3.9592226e-07
3.9592226e-07
3.9592226e-07
3.9592226e-07
3.9592226e-07
3.9592226e-07
3.9592221e-07
3.9592224e-07
3.9592225e-07
3.9592226e-07
3.9592226e-07
3.9592226e-07
3.9592226e-07
3.9592226e-07
3.9592226e-07
3.9592226e-07
3.9592226e-07
3.9592226e-07
3.9592226e-07
3.9592226e-07
3.9592221e-07
3.9592224e-07
3.9592225e-07
3.9592226e-07
3.9592226e-07
3.9592226e-07
3.9592226e-07
3.9592226e-07
3.9592226e-07
3.9592226e-07
3.9592226e-07
3.9592226e-07
3.9592226e-07
3.9592226e-07
3.9592221e-07
3.9592224e-07
3.9592225e-07
3.9592226e-07
3.9592226e-07
3.9592226e-07
3.9592226e-07
3.9592226e-07
3.9592226e-07
3.9592226e-07
3.9592226e-07
3.9592226e-07
3.9592226e-07
3.9592226e-07
3.9592221e-07
3.9592224e-07
3.9592225e-07
3.9592226e-07
3.9592226e-07
3.9592226e-07
3.9592226e-07
3.9592226e-07
3.9592226e-07
3.9592226e-07
3.9592226e-07
3.9592226e-07
3.9592226e-07
3.9592226e-07
3.9592226e-07
3.9592226e-07
3.9592226e-07
3.9592226e-07
3.9592226e-07
3.9592226e-07
3.9592226e-07
3.9592226e-07
3.9592226e-07
3.9592225e-07
3.9592224e-07
3.9592221e-07
3.9592226e-07
3.9592226e-07
3.9592226e-07
3.9592226e-07
3.9592226e-07
3.9592226e-07
3.9592226e-07
3.9592225e-07
3.9592224e-07
3.9592221e-07
3.9592226e-07
3.9592226e-07
3.9592226e-07
3.9592226e-07
3.9592226e-07
3.9592226e-07
3.9592225e-07
3.9592224e-07
3.9592221e-07
3.9592226e-07
3.9592226e-07
3.9592226e-07
3.9592226e-07
3.9592225e-07
3.9592224e-07
3.9592221e-07
3.9592226e-07
3.9592226e-07
3.9592226e-07
3.9592225e-07
3.9592224e-07
3.9592221e-07
3.9592226e-07
3.9592225e-07
3.9592224e-07
3.9592221e-07
3.9592225e-07
3.9592224e-07
3.9592221e-07
3.9592224e-07
3.9592221e-07
3.9592221e-07
4.1224934e-07
4.1210927e-07
4.1219055e-07
4.1219174e-07
4.1220895e-07
4.122514e-07
4.12298e-07
4.1235275e-07
4.1242945e-07
4.1258113e-07
3.9603692e-07
3.9603684e-07
3.9604115e-07
3.9603182e-07
3.9602205e-07
3.9601457e-07
3.9601289e-07
3.9601249e-07
3.9601442e-07
3.9602216e-07
3.9586166e-07
3.9586012e-07
3.9585851e-07
3.9585684e-07
3.9585648e-07
3.9585629e-07
3.9585613e-07
3.9585601e-07
3.9585614e-07
3.9585721e-07
3.9591496e-07
3.9591474e-07
3.9591453e-07
3.959144e-07
3.9591433e-07
3.9591429e-07
3.9591425e-07
3.959142e-07
3.9591413e-07
3.9591403e-07
3.9592081e-07
3.959208e-07
3.9592077e-07
3.9592076e-07
3.9592075e-07
3.9592073e-07
3.9592071e-07
3.9592069e-07
3.9592068e-07
3.9592066e-07
3.9592143e-07
3.9592142e-07
3.9592141e-07
3.959214e-07
3.9592139e-07
3.9592138e-07
3.9592137e-07
3.9592137e-07
3.9592136e-07
3.9592135e-07
3.9592167e-07
3.9592167e-07
3.9592166e-07
3.9592165e-07
3.9592165e-07
3.9592164e-07
3.9592163e-07
3.9592163e-07
3.9592162e-07
3.9592162e-07
3.9592182e-07
3.9592182e-07
3.9592181e-07
3.959218e-07
3.959218e-07
3.959218e-07
3.9592179e-07
3.9592179e-07
3.9592179e-07
3.9592178e-07
3.9592191e-07
3.9592191e-07
3.9592191e-07
3.9592191e-07
3.9592191e-07
3.959219e-07
3.959219e-07
3.9592189e-07
3.9592189e-07
3.9592189e-07
3.9592198e-07
3.9592198e-07
3.9592198e-07
3.9592198e-07
3.9592198e-07
3.9592197e-07
3.9592197e-07
3.9592197e-07
3.9592196e-07
3.9592196e-07
3.9592203e-07
3.9592203e-07
3.9592203e-07
3.9592203e-07
3.9592203e-07
3.9592203e-07
3.9592202e-07
3.9592202e-07
3.9592202e-07
3.9592202e-07
3.9592207e-07
3.9592207e-07
3.9592207e-07
3.9592207e-07
3.9592207e-07
3.9592207e-07
3.9592206e-07
3.9592206e-07
3.9592206e-07
3.9592206e-07
3.959221e-07
3.959221e-07
3.959221e-07
3.959221e-07
3.959221e-07
3.959221e-07
3.959221e-07
3.9592209e-07
3.9592209e-07
3.9592209e-07
3.9592213e-07
3.9592213e-07
3.9592212e-07
3.9592212e-07
3.9592212e-07
3.9592212e-07
3.9592212e-07
3.9592212e-07
3.9592212e-07
3.9592212e-07
4.1292369e-07
4.1282458e-07
4.128614e-07
4.128926e-07
4.1294338e-07
4.1297517e-07
4.1300306e-07
4.1301814e-07
4.1302948e-07
4.1303946e-07
4.1305111e-07
4.1306613e-07
4.1308555e-07
4.1306609e-07
3.9606533e-07
3.9607149e-07
3.9606552e-07
3.9606343e-07
3.9606347e-07
3.9606089e-07
3.9605382e-07
3.9604816e-07
3.9604374e-07
3.9603674e-07
3.9603404e-07
3.9603233e-07
3.9603263e-07
3.9603277e-07
3.9586073e-07
3.9586539e-07
3.9586865e-07
3.9587182e-07
3.9587501e-07
3.958782e-07
3.9588125e-07
3.9588383e-07
3.958858e-07
3.9588737e-07
3.9588883e-07
3.9589026e-07
3.9589189e-07
3.9589398e-07
3.9591411e-07
3.9591484e-07
3.9591532e-07
3.9591576e-07
3.9591619e-07
3.9591662e-07
3.9591701e-07
3.9591733e-07
3.9591757e-07
3.9591776e-07
3.9591793e-07
3.9591809e-07
3.9591827e-07
3.959185e-07
3.9592065e-07
3.9592071e-07
3.9592073e-07
3.9592075e-07
3.9592078e-07
3.9592082e-07
3.9592083e-07
3.9592085e-07
3.9592086e-07
3.9592088e-07
3.9592089e-07
3.959209e-07
3.9592091e-07
3.9592093e-07
3.9592134e-07
3.9592135e-07
3.9592136e-07
3.9592136e-07
3.9592137e-07
3.9592138e-07
3.9592138e-07
3.9592138e-07
3.9592138e-07
3.9592139e-07
3.9592139e-07
3.959214e-07
3.959214e-07
3.959214e-07
3.9592161e-07
3.9592162e-07
3.9592163e-07
3.9592162e-07
3.9592163e-07
3.9592163e-07
3.9592163e-07
3.9592163e-07
3.9592164e-07
3.9592164e-07
3.9592164e-07
3.9592165e-07
3.9592164e-07
3.9592165e-07
3.9592178e-07
3.9592178e-07
3.9592178e-07
3.9592179e-07
3.9592179e-07
3.9592179e-07
3.9592179e-07
3.9592179e-07
3.9592179e-07
3.9592179e-07
3.959218e-07
3.959218e-07
3.959218e-07
3.959218e-07
3.9592188e-07
3.9592189e-07
3.9592189e-07
3.9592189e-07
3.9592189e-07
3.959219e-07
3.9592189e-07
3.9592189e-07
3.959219e-07
3.959219e-07
3.959219e-07
3.959219e-07
3.959219e-07
3.959219e-07
3.9592196e-07
3.9592196e-07
3.9592196e-07
3.9592197e-07
3.9592197e-07
3.9592197e-07
3.9592197e-07
3.9592197e-07
3.9592197e-07
3.9592197e-07
3.9592197e-07
3.9592197e-07
3.9592198e-07
3.9592197e-07
3.9592202e-07
3.9592202e-07
3.9592202e-07
3.9592202e-07
3.9592202e-07
3.9592202e-07
3.9592202e-07
3.9592202e-07
3.9592202e-07
3.9592202e-07
3.9592202e-07
3.9592203e-07
3.9592203e-07
3.9592203e-07
3.9592206e-07
3.9592206e-07
3.9592206e-07
3.9592206e-07
3.9592206e-07
3.9592206e-07
3.9592206e-07
3.9592206e-07
3.9592206e-07
3.9592206e-07
3.9592206e-07
3.9592207e-07
3.9592207e-07
3.9592207e-07
3.9592209e-07
3.9592209e-07
3.9592209e-07
3.9592209e-07
3.9592209e-07
3.9592209e-07
3.9592209e-07
3.9592209e-07
3.9592209e-07
3.9592209e-07
3.9592209e-07
3.959221e-07
3.959221e-07
3.959221e-07
3.9592211e-07
3.9592212e-07
3.9592212e-07
3.9592212e-07
3.9592212e-07
3.9592212e-07
3.9592212e-07
3.9592212e-07
3.9592212e-07
3.9592212e-07
3.9592212e-07
3.9592212e-07
3.9592212e-07
3.9592212e-07
3.9592214e-07
3.9592212e-07
3.9592209e-07
3.9592206e-07
3.9592201e-07
3.9592195e-07
3.9592187e-07
3.9592173e-07
3.9592153e-07
3.9592117e-07
3.9592058e-07
3.9592213e-07
3.9592211e-07
3.9592208e-07
3.9592205e-07
3.95922e-07
3.9592194e-07
3.9592185e-07
3.9592172e-07
3.959215e-07
3.9592113e-07
3.9592055e-07
3.9592525e-07
3.9591213e-07
4.1303599e-07
3.9592213e-07
3.9592211e-07
3.9592208e-07
3.9592204e-07
3.95922e-07
3.9592193e-07
3.9592184e-07
3.959217e-07
3.9592148e-07
3.959211e-07
3.9592039e-07
3.9592111e-07
3.9593277e-07
4.1307507e-07
3.9592213e-07
3.959221e-07
3.9592208e-07
3.9592204e-07
3.9592199e-07
3.9592192e-07
3.9592183e-07
3.9592169e-07
3.9592146e-07
3.9592107e-07
3.959203e-07
3.9591857e-07
3.9595068e-07
4.1307633e-07
3.9592212e-07
3.959221e-07
3.9592207e-07
3.9592203e-07
3.9592198e-07
3.9592192e-07
3.9592182e-07
3.9592168e-07
3.9592145e-07
3.9592104e-07
3.9592016e-07
3.959154e-07
3.959672e-07
4.1304989e-07
3.9592212e-07
3.959221e-07
3.9592207e-07
3.9592203e-07
3.9592198e-07
3.9592191e-07
3.9592182e-07
3.9592167e-07
3.9592143e-07
3.9592102e-07
3.9591996e-07
3.9591133e-07
3.9598187e-07
4.1299663e-07
3.9592212e-07
3.959221e-07
3.9592207e-07
3.9592203e-07
3.9592198e-07
3.9592191e-07
3.9592181e-07
3.9592166e-07
3.9592142e-07
3.95921e-07
3.9591972e-07
3.9590685e-07
3.9599357e-07
4.1293005e-07
3.9592212e-07
3.959221e-07
3.9592207e-07
3.9592203e-07
3.9592198e-07
3.959219e-07
3.959218e-07
3.9592166e-07
3.9592142e-07
3.9592098e-07
3.9591944e-07
3.9590271e-07
3.9599698e-07
4.1285651e-07
3.9592212e-07
3.959221e-07
3.9592207e-07
3.9592203e-07
3.9592197e-07
3.959219e-07
3.959218e-07
3.9592165e-07
3.9592142e-07
3.9592098e-07
3.959192e-07
3.9589957e-07
3.9600624e-07
4.1277695e-07
3.9592212e-07
3.959221e-07
3.9592207e-07
3.9592203e-07
3.9592198e-07
3.959219e-07
3.959218e-07
3.9592165e-07
3.9592141e-07
3.9592096e-07
3.9591901e-07
3.958969e-07
3.9601058e-07
4.1264541e-07
3.9592214e-07
3.9592212e-07
3.9592209e-07
3.9592206e-07
3.9592201e-07
3.9592195e-07
3.9592187e-07
3.9592173e-07
3.9592153e-07
3.9592116e-07
3.9592031e-07
3.9591439e-07
3.9597127e-07
4.1266822e-07
3.9592214e-07
3.9592212e-07
3.9592209e-07
3.9592206e-07
3.9592201e-07
3.9592195e-07
3.9592186e-07
3.9592172e-07
3.9592151e-07
3.9592114e-07
3.959202e-07
3.9591276e-07
3.959762e-07
4.126932e-07
3.9592213e-07
3.9592211e-07
3.9592208e-07
3.9592205e-07
3.95922e-07
3.9592194e-07
3.9592185e-07
3.9592172e-07
3.959215e-07
3.9592112e-07
3.959201e-07
3.9591106e-07
3.959807e-07
4.1269683e-07
3.9592213e-07
3.9592211e-07
3.9592208e-07
3.9592205e-07
3.95922e-07
3.9592194e-07
3.9592185e-07
3.9592171e-07
3.9592149e-07
3.959211e-07
3.9591998e-07
3.9590927e-07
3.9598481e-07
4.1269266e-07
3.9592213e-07
3.9592211e-07
3.9592208e-07
3.9592204e-07
3.95922e-07
3.9592193e-07
3.9592184e-07
3.959217e-07
3.9592148e-07
3.9592109e-07
3.9591985e-07
3.9590737e-07
3.9598878e-07
4.1268102e-07
3.9592213e-07
3.9592211e-07
3.9592208e-07
3.9592204e-07
3.9592199e-07
3.9592193e-07
3.9592183e-07
3.9592169e-07
3.9592148e-07
3.9592107e-07
3.9591971e-07
3.9590532e-07
3.9599411e-07
4.1266061e-07
3.9592213e-07
3.9592211e-07
3.9592208e-07
3.9592204e-07
3.9592199e-07
3.9592193e-07
3.9592183e-07
3.9592169e-07
3.9592147e-07
3.9592106e-07
3.9591955e-07
3.9590315e-07
3.9599922e-07
4.1263029e-07
3.9592213e-07
3.9592211e-07
3.9592208e-07
3.9592204e-07
3.9592199e-07
3.9592192e-07
3.9592183e-07
3.9592169e-07
3.9592146e-07
3.9592106e-07
3.9591938e-07
3.9590089e-07
3.9600384e-07
4.1259034e-07
3.9592213e-07
3.9592211e-07
3.9592208e-07
3.9592204e-07
3.9592199e-07
3.9592192e-07
3.9592183e-07
3.9592169e-07
3.9592146e-07
3.9592105e-07
3.9591919e-07
3.9589841e-07
3.9600854e-07
4.1253783e-07
3.9592213e-07
3.9592211e-07
3.9592208e-07
3.9592204e-07
3.9592199e-07
3.9592193e-07
3.9592183e-07
3.9592169e-07
3.9592146e-07
3.9592103e-07
3.9591896e-07
3.9589571e-07
3.9601251e-07
4.1247017e-07
3.9592213e-07
3.9592213e-07
3.9592213e-07
3.9592213e-07
3.9592213e-07
3.9592213e-07
3.9592213e-07
3.9592211e-07
3.9592211e-07
3.9592211e-07
3.9592211e-07
3.9592211e-07
3.9592211e-07
3.9592211e-07
3.9592211e-07
3.9592208e-07
3.9592208e-07
3.9592208e-07
3.9592208e-07
3.9592208e-07
3.9592208e-07
3.9592208e-07
3.9592208e-07
3.9592204e-07
3.9592204e-07
3.9592204e-07
3.9592204e-07
3.9592204e-07
3.9592204e-07
3.9592204e-07
3.9592204e-07
3.9592204e-07
3.9592199e-07
3.9592199e-07
3.9592199e-07
3.9592199e-07
3.9592199e-07
3.9592199e-07
3.9592199e-07
3.9592199e-07
3.9592199e-07
3.9592192e-07
3.9592192e-07
3.9592192e-07
3.9592192e-07
3.9592192e-07
3.9592192e-07
3.9592192e-07
3.9592192e-07
3.9592193e-07
3.9592193e-07
3.9592183e-07
3.9592183e-07
3.9592183e-07
3.9592183e-07
3.9592183e-07
3.9592183e-07
3.9592183e-07
3.9592183e-07
3.9592183e-07
3.9592183e-07
3.9592168e-07
3.9592168e-07
3.9592168e-07
3.9592168e-07
3.9592168e-07
3.9592168e-07
3.9592168e-07
3.9592168e-07
3.9592168e-07
3.9592169e-07
3.9592169e-07
3.9592145e-07
3.9592145e-07
3.9592144e-07
3.9592144e-07
3.9592144e-07
3.9592144e-07
3.9592144e-07
3.9592145e-07
3.9592145e-07
3.9592145e-07
3.9592146e-07
3.9592091e-07
3.9592091e-07
3.9592092e-07
3.9592092e-07
3.9592093e-07
3.9592093e-07
3.9592094e-07
3.9592095e-07
3.9592096e-07
3.9592098e-07
3.9592099e-07
3.95921e-07
3.9591632e-07
3.9591648e-07
3.9591664e-07
3.9591681e-07
3.9591701e-07
3.959172e-07
3.9591741e-07
3.9591763e-07
3.9591785e-07
3.9591807e-07
3.9591829e-07
3.9591854e-07
3.9587273e-07
3.9587388e-07
3.958751e-07
3.9587648e-07
3.9587803e-07
3.9587972e-07
3.9588148e-07
3.9588339e-07
3.9588536e-07
3.958874e-07
3.9588947e-07
3.9589157e-07
3.9589378e-07
3.9602212e-07
3.9602143e-07
3.9602316e-07
3.9602463e-07
3.9602711e-07
3.9602991e-07
3.9603189e-07
3.9603336e-07
3.9603531e-07
3.9603576e-07
3.9603504e-07
3.9603185e-07
3.9602874e-07
3.9602879e-07
4.1198722e-07
4.1196338e-07
4.1200844e-07
4.1204427e-07
4.1208226e-07
4.1212157e-07
4.1215865e-07
4.1219715e-07
4.1223425e-07
4.1227071e-07
4.1230548e-07
4.1233617e-07
4.1236292e-07
4.1239062e-07
)
;

boundaryField
{
    Side
    {
        type            empty;
    }
    Inlet
    {
        type            inletOutlet;
        inletValue      uniform 3.9592226e-07;
        value           nonuniform List<scalar> 
42
(
3.9592226e-07
3.9592226e-07
3.9592226e-07
3.9592226e-07
3.9592226e-07
3.9592226e-07
3.9592226e-07
3.9592226e-07
3.9592226e-07
3.9592226e-07
3.9592226e-07
3.9592226e-07
3.9592226e-07
3.9592226e-07
3.9592226e-07
3.9592226e-07
3.9592226e-07
3.9592226e-07
3.9592226e-07
3.9592226e-07
3.9592226e-07
3.9592226e-07
3.9592226e-07
3.9592226e-07
3.9592226e-07
3.9592226e-07
3.9592226e-07
3.9592226e-07
3.9592226e-07
3.9592226e-07
3.9592226e-07
3.9592226e-07
3.9592226e-07
3.9592226e-07
3.9592226e-07
3.9592226e-07
3.9592226e-07
3.9592226e-07
3.9592226e-07
3.9592226e-07
3.9592226e-07
3.9592226e-07
)
;
    }
    Airfoil
    {
        type            nutUSpaldingWallFunction;
        value           nonuniform List<scalar> 
57
(
1.4332331e-05
1.4258901e-05
1.4193197e-05
1.4132333e-05
1.4074846e-05
1.4018891e-05
1.3961603e-05
1.3905377e-05
1.3850796e-05
1.3799095e-05
1.3730141e-05
1.3765421e-05
1.378833e-05
1.3805452e-05
1.3822611e-05
1.3840454e-05
1.3854196e-05
1.3860455e-05
1.3863534e-05
1.3869646e-05
1.3879701e-05
1.3891598e-05
1.3906252e-05
1.3920255e-05
1.4394545e-05
1.4252467e-05
1.4140657e-05
1.4063078e-05
1.4017104e-05
1.3994936e-05
1.398584e-05
1.39893e-05
1.4015952e-05
1.4701502e-05
1.4605013e-05
1.4521996e-05
1.4453e-05
1.439909e-05
1.4361429e-05
1.434071e-05
1.4338183e-05
1.4358613e-05
1.4403598e-05
1.455426e-05
1.452758e-05
1.4501856e-05
1.4477475e-05
1.4455776e-05
1.443792e-05
1.4420854e-05
1.4409879e-05
1.4402097e-05
1.4398934e-05
1.4400443e-05
1.4405893e-05
1.4416089e-05
1.4433684e-05
)
;
    }
    Outlet
    {
        type            zeroGradient;
    }
    Flap
    {
        type            nutUSpaldingWallFunction;
        value           nonuniform List<scalar> 0();
    }
    procBoundary1to0
    {
        type            processor;
        value           nonuniform List<scalar> 
58
(
3.9592226e-07
3.9592226e-07
3.9592226e-07
3.9592226e-07
3.9592226e-07
3.9592226e-07
3.9592226e-07
3.9592226e-07
3.9592226e-07
3.9592226e-07
3.9592226e-07
3.9592226e-07
3.9592225e-07
3.9592224e-07
3.9592221e-07
3.9592221e-07
3.9592224e-07
3.9592225e-07
3.9592226e-07
3.9592226e-07
3.9592226e-07
3.9592226e-07
3.9592226e-07
3.9592226e-07
3.9592226e-07
3.9592226e-07
3.9592226e-07
3.9592226e-07
3.9592226e-07
3.9592214e-07
3.9592212e-07
3.959221e-07
3.9592206e-07
3.9592202e-07
3.9592196e-07
3.9592188e-07
3.9592175e-07
3.9592155e-07
3.959212e-07
3.9592063e-07
3.9592657e-07
3.9592657e-07
3.9589701e-07
4.130499e-07
3.9592214e-07
3.9592212e-07
3.9592209e-07
3.9592206e-07
3.9592202e-07
3.9592196e-07
3.9592187e-07
3.9592174e-07
3.9592154e-07
3.9592118e-07
3.9592039e-07
3.9591589e-07
3.959644e-07
4.1270378e-07
)
;
    }
    procBoundary1to2
    {
        type            processor;
        value           nonuniform List<scalar> 
73
(
3.9592226e-07
3.9592226e-07
3.9592226e-07
3.9592226e-07
3.9592226e-07
3.9592226e-07
3.9592226e-07
3.9592226e-07
3.9592226e-07
3.9592226e-07
3.9592226e-07
3.9592225e-07
3.9592224e-07
3.9592221e-07
3.9602272e-07
4.1187889e-07
3.9592226e-07
3.9592226e-07
3.9592226e-07
3.9592226e-07
3.9592226e-07
3.9592226e-07
3.9592226e-07
3.9592226e-07
3.9592226e-07
3.9592226e-07
3.9592226e-07
3.9592226e-07
3.9592226e-07
3.9592226e-07
3.9592226e-07
3.9592226e-07
3.9592226e-07
3.9592226e-07
3.9592225e-07
3.9592225e-07
3.9592224e-07
3.9592224e-07
3.9592221e-07
3.9592221e-07
4.1197776e-07
3.9602358e-07
3.9586406e-07
3.9591534e-07
3.9592085e-07
3.9592145e-07
3.9592168e-07
3.9592183e-07
3.9592192e-07
3.9592199e-07
3.9592204e-07
3.9592208e-07
3.959221e-07
3.9592213e-07
3.9592213e-07
3.9592213e-07
3.9592211e-07
3.9592208e-07
3.9592208e-07
3.9592204e-07
3.9592199e-07
3.9592199e-07
3.9592192e-07
3.9592183e-07
3.9592183e-07
3.9592169e-07
3.9592145e-07
3.9592145e-07
3.9592091e-07
3.9591623e-07
3.9591623e-07
3.9587198e-07
3.9587198e-07
)
;
    }
}


// ************************************************************************* //
