/*--------------------------------*- C++ -*----------------------------------*\
| =========                 |                                                 |
| \\      /  F ield         | OpenFOAM: The Open Source CFD Toolbox           |
|  \\    /   O peration     | Version:  2206                                  |
|   \\  /    A nd           | Website:  www.openfoam.com                      |
|    \\/     M anipulation  |                                                 |
\*---------------------------------------------------------------------------*/
FoamFile
{
    version     2.0;
    format      ascii;
    arch        "LSB;label=32;scalar=64";
    class       volScalarField;
    location    "0.01";
    object      p;
}
// * * * * * * * * * * * * * * * * * * * * * * * * * * * * * * * * * * * * * //

dimensions      [1 -1 -2 0 0 0 0];

internalField   nonuniform List<scalar> 
1396
(
1
1
1
1
1
1
1
1
1
1
1
1
1
1
1
1
1
1
1
1
1
1
1
1
1
1
1
1
1
1
1
1
1
1
1
1
1
1
1
1
1
1
1
1
1
1
1
1
1
1
1
1
1
1
1
1
1
1
1
1
1
1
1
1
1
1
1
1
1
1
1
1
1
1
1
1
1
1
1
1
1
1
1
1
1
1
1
1
1
1
1
1
1
1
1
1
1
1
1
1
1
1
1
1
1
1
1
1
1
1
1
1
1
1
1
1
1
1
1
1
1
1
1
1
1
1
1
1
1
1
1
1
1
1
1
1
1
1
1
1
1
1
1
1
1
1
1
1
1
1
1
1
1
1
1
1
1
1
1
1
1
1
1
1
1
1
1
1
1
1
1
1
1
1
1
1
1
1
1
1
1
1
1
1
1
1
1
1
1
1
1
1
1
1
1
1
1
1
1
1
1
1
1
1
1
1
1
1
1
1
1
1
1
1
1
1
1
1
1
1
1
1
1
1
1
1
1
1
1
1
1
1
1
1
1
1
1
1
1
1
1
1
1
1
1
1
1
1
1
1
1
1
1
1
1
1
1
1
1
1
1
1
1
1
1
1
1
1
1
1
1
1
1
1
1
1
1
1
1
1
1
1
1
1
1
1
1
1
1
1
1
1
1
1
1
1
1
1
1
1
1
1
1
1
1
1
1
1
1
1
1
1
1
1
1
1
1
1
1
1
1
1
1
1
1
1
1
1
1
1
1
1
1
1
1
1
1
1
1
1
1
1
1
1
1
1
1
1
1
1
1
1
1
1
1
1
1
1
1
1
1
1
1
1
1
1
1
1
1
1
1
1
1
1
1
1
1
1
1
1
1
1
1
1
1
1
1
1
1
1
1
1
1
1
1
1
1
1
1
1
1
1
1
1
1
1
1
1
1
1
1
1
1
1
1
1
1
1
1
1
1
1
1
1
1
1
1
1
1
1
1
1
1
1
1
1
1
1
1
1
1
1
1
1
1
1
1
1
1
1
1
1
1
1
1
1
1
1
1
1
1
1
1
1
1
1
1
1
1
1
1
1
1
1
1
1
1
1
1
1
1
1
1
1
1
1
1
1
1
1
1
1
1
1
1
1
1
1
1
1
1
1
1
1
1
1
1
1
1
1
1
1
1
1
1
1
1
1
1
1
1
1
1
1
1
1
1
1
1
1
1
1
1
1
1
1
1
1
1
1
1
1
1
1
1
1
1
1
1
1
1
1
1
1
1
1
1
1
1
1
1
1
1
1
1
1
1
1
1
1
1
1
1
1
1
1
1
1
1
1
1
1
1
1
1
1
1
1
1
1
1
1
1
1
1
1
1
1
1
1
1
1
1
1
1
1
1
1
1
1
1
1
1
1
1
1
1
1
1
1
1
1
1
1
1
1
1
1
1
1
1
1
1
1
1
0.86202904
0.85943889
0.85767302
0.85684871
0.85685438
0.85741461
0.85824329
0.85929511
0.86062599
0.86230105
0.98833346
0.98802261
0.98785364
0.9877996
0.9878193
0.98787613
0.98794484
0.98801945
0.98807885
0.98808492
0.99866383
0.99861531
0.99858036
0.99855926
0.99855141
0.99854947
0.99854813
0.99854697
0.99854684
0.99855913
0.99991043
0.99990558
0.99990204
0.99989984
0.99989876
0.99989834
0.99989803
0.99989762
0.9998966
0.99989452
0.99999753
0.99999738
0.99999728
0.99999722
0.99999718
0.99999716
0.99999714
0.99999711
0.99999705
0.99999695
0.99999993
0.99999992
0.99999992
0.99999992
0.99999992
0.99999991
0.99999991
0.99999991
0.99999991
0.9999999
1
1
1
1
1
1
1
1
1
1
1
1
1
1
1
1
1
1
1
1
1
1
1
1
1
1
1
1
1
1
1
1
1
1
1
1
1
1
1
1
1
1
1
1
1
1
1
1
1
1
1
1
1
1
1
1
1
1
1
1
1
1
1
1
1
1
1
1
1
1
1
1
1
1
1
1
1
1
1
1
0.86499455
0.87116466
0.87742066
0.88307874
0.8884767
0.89426285
0.90050051
0.90644377
0.91123824
0.91494925
0.91804138
0.92093031
0.92377161
0.92717248
0.98807204
0.9890329
0.98981405
0.99051605
0.99118247
0.99187002
0.9925645
0.99318488
0.99366309
0.99403064
0.99433624
0.99461458
0.9948822
0.99519165
0.99863805
0.99876153
0.99884861
0.99892791
0.99900327
0.99908132
0.99915946
0.99922736
0.99927862
0.99931837
0.99935254
0.99938461
0.99941917
0.99946769
0.99989435
0.99990757
0.9999165
0.99992409
0.99993124
0.99993864
0.99994586
0.99995185
0.9999561
0.99995924
0.99996194
0.99996451
0.99996732
0.99997148
0.99999683
0.99999734
0.99999763
0.99999789
0.99999812
0.99999836
0.99999858
0.99999876
0.99999888
0.99999897
0.99999905
0.99999913
0.99999922
0.99999936
0.9999999
0.99999992
0.99999993
0.99999994
0.99999995
0.99999995
0.99999996
0.99999997
0.99999997
0.99999997
0.99999997
0.99999998
0.99999998
0.99999998
1
1
1
1
1
1
1
1
1
1
1
1
1
1
1
1
1
1
1
1
1
1
1
1
1
1
1
1
1
1
1
1
1
1
1
1
1
1
1
1
1
1
1
1
1
1
1
1
1
1
1
1
1
1
1
1
1
1
1
1
1
1
1
1
1
1
1
1
1
1
1
1
1
1
1
1
1
1
1
1
1
1
1
1
1
1
1
1
1
1
1
1
1
1
1
1
1
1
1
1
1
1
1
1
1
1
1
1
1
1
1
1
1
1
1
1
1
1
1
1
1
1
1.0000017
1
1
1
1
1
1
1
1
1
1
1.0000023
1.0001636
1.0004023
1.0157523
1
1
1
1
1
1
1
1
1
1
1.0000007
1.0000452
1.0002052
1.0070951
1
1
1
1
1
1
1
1
1
1
1.0000001
1.0000006
0.99981538
0.99701502
1
1
1
1
1
1
1
1
1
0.99999998
0.99999856
0.99994203
0.99923074
0.98521857
1
1
1
1
1
1
1
1
1
0.99999994
0.99999598
0.99986227
0.99849582
0.9722864
1
1
1
1
1
1
1
1
1
0.99999987
0.9999923
0.9997715
0.99766118
0.95955966
1
1
1
1
1
1
1
1
1
0.99999978
0.99998777
0.99968783
0.99689997
0.94892973
1
1
1
1
1
1
1
1
0.99999999
0.9999997
0.99998379
0.99962231
0.99625691
0.94080779
1
1
1
1
1
1
1
1
0.99999999
0.99999962
0.99998016
0.99956424
0.99565059
0.93356742
1
1
1
1
1
1
1
1
1
0.99999997
0.99999782
0.99991826
0.99903673
0.97899694
1
1
1
1
1
1
1
1
1
0.99999995
0.99999672
0.99988814
0.99874676
0.9737536
1
1
1
1
1
1
1
1
1
0.99999993
0.99999541
0.99985611
0.99843277
0.96848597
1
1
1
1
1
1
1
1
1
0.9999999
0.99999387
0.99982142
0.99809098
0.96312096
1
1
1
1
1
1
1
1
1
0.99999987
0.99999205
0.99978363
0.99771507
0.95756481
1
1
1
1
1
1
1
1
1
0.99999983
0.99998991
0.99974228
0.99729815
0.95172857
1
1
1
1
1
1
1
1
1
0.99999978
0.9999874
0.99969751
0.99683905
0.94561878
1
1
1
1
1
1
1
1
1
0.99999972
0.99998461
0.99964986
0.9963374
0.93930368
1
1
1
1
1
1
1
1
0.99999999
0.99999965
0.99998128
0.99959641
0.99575557
0.93232153
1
1
1
1
1
1
1
1
0.99999999
0.99999956
0.99997693
0.99953759
0.99510409
0.92458275
1
1
1
1
1
1
1
1
1
1
1
1
1
1
1
1
1
1
1
1
1
1
1
1
1
1
1
1
1
1
1
1
1
1
1
1
1
1
1
1
1
1
1
1
1
1
1
1
1
1
1
1
1
1
1
1
1
1
1
1
1
1
1
1
1
1
1
1
1
1
1
1
0.99999996
0.99999996
0.99999996
0.99999997
0.99999997
0.99999997
0.99999997
0.99999998
0.99999998
0.99999998
0.99999999
0.99999827
0.99999835
0.99999843
0.99999852
0.99999862
0.99999872
0.99999882
0.99999893
0.99999903
0.99999913
0.99999923
0.99999935
0.99993232
0.9999349
0.99993773
0.99994085
0.99994425
0.99994763
0.99995128
0.99995494
0.99995867
0.99996239
0.99996601
0.99996997
0.99899139
0.99901597
0.9990444
0.99907603
0.99911126
0.99915041
0.99919028
0.99923358
0.99927812
0.99932447
0.9993718
0.99941915
0.99946974
0.9894414
0.98966086
0.98993293
0.99024367
0.9905836
0.99095214
0.9913641
0.99177494
0.99221773
0.99266994
0.99313605
0.9936118
0.99408457
0.99456283
0.87251593
0.87443136
0.87674336
0.87937671
0.88226797
0.88543226
0.88901374
0.89261813
0.89658907
0.90072303
0.90508112
0.90963256
0.91418683
0.91856765
)
;

boundaryField
{
    Side
    {
        type            empty;
    }
    Inlet
    {
        type            inletOutlet;
        inletValue      uniform 1;
        value           nonuniform List<scalar> 
42
(
1
1
1
1
1
1
1
1
1
1
1
1
1
1
1
1
1
1
1
1
1
1
1
1
1
1
1
1
1
1
1
1
1
1
1
1
1
1
1
1
1
1
)
;
    }
    Airfoil
    {
        type            zeroGradient;
    }
    Outlet
    {
        type            zeroGradient;
    }
    Flap
    {
        type            zeroGradient;
    }
    procBoundary1to0
    {
        type            processor;
        value           nonuniform List<scalar> 
58
(
1
1
1
1
1
1
1
1
1
1
1
1
1
1
1
1
1
1
1
1
1
1
1
1
1
1
1
1
1
1
1
1
1
1
1
1
1
1
1
1.0000016
1.000155
1.000155
1.0006742
1.023202
1
1
1
1
1
1
1
1
1
0.99999998
0.99999867
0.99994602
0.99931106
0.98432581
)
;
    }
    procBoundary1to2
    {
        type            processor;
        value           nonuniform List<scalar> 
73
(
1
1
1
1
1
1
1
1
1
1
1
1
1
1
0.98923481
0.87089019
1
1
1
1
1
1
1
1
1
1
1
1
1
1
1
1
1
1
1
1
1
1
1
1
0.86497043
0.98875536
0.99872334
0.99991591
0.99999771
0.99999993
1
1
1
1
1
1
1
1
1
1
1
1
1
1
1
1
1
1
1
1
0.99999996
0.99999996
0.9999982
0.99993006
0.99993006
0.99897273
0.99897273
)
;
    }
}


// ************************************************************************* //
