/*--------------------------------*- C++ -*----------------------------------*\
| =========                 |                                                 |
| \\      /  F ield         | OpenFOAM: The Open Source CFD Toolbox           |
|  \\    /   O peration     | Version:  2206                                  |
|   \\  /    A nd           | Website:  www.openfoam.com                      |
|    \\/     M anipulation  |                                                 |
\*---------------------------------------------------------------------------*/
FoamFile
{
    version     2.0;
    format      ascii;
    arch        "LSB;label=32;scalar=64";
    class       surfaceScalarField;
    location    "0.01";
    object      phi;
}
// * * * * * * * * * * * * * * * * * * * * * * * * * * * * * * * * * * * * * //

dimensions      [1 0 -1 0 0 0 0];

oriented        oriented;

internalField   nonuniform List<scalar> 
2677
(
-0.001548245
0.28219208
-0.0017230846
0.28219208
-0.0018979251
0.28219208
-0.0020727648
0.28219208
-0.0022476062
0.28219208
-0.0024224458
0.28219208
0.28219208
-0.001548245
0.28236692
-0.0017230846
0.28236692
-0.0018979251
0.28236692
-0.0020727657
0.28236692
-0.0022476053
0.28236692
-0.002422445
0.28236692
-0.0025972855
0.28236692
-0.002772126
0.28236692
-0.0029469665
0.28236692
-0.0031218062
0.28236692
-0.0032966467
0.28236692
-0.0034714872
0.28236692
-0.0036463271
0.28236692
0.28236692
-0.0038211673
-0.0015482441
0.28254176
-0.0017230855
0.28254176
-0.0018979252
0.28254176
-0.0020727648
0.28254176
-0.0022476053
0.28254176
-0.0024224458
0.28254176
-0.0025972863
0.28254176
-0.002772126
0.28254176
-0.0029469657
0.28254176
-0.003121807
0.28254176
-0.0032966467
0.28254176
-0.0034714863
0.28254176
-0.003646327
0.28254176
0.28254176
-0.0038211672
-0.001548245
0.2827166
-0.0017230846
0.2827166
-0.0018979251
0.2827166
-0.0020727657
0.2827166
-0.0022476053
0.2827166
-0.0024224458
0.2827166
-0.0025972855
0.2827166
-0.002772126
0.2827166
-0.0029469665
0.2827166
-0.0031218062
0.2827166
-0.0032966467
0.2827166
-0.0034714872
0.2827166
-0.003646327
0.2827166
0.2827166
-0.0038211673
-0.001548245
0.28289144
-0.0017230846
0.28289144
-0.0018979251
0.28289144
-0.0020727657
0.28289144
-0.0022476053
0.28289144
-0.0024224458
0.28289144
-0.0025972855
0.28289144
-0.002772126
0.28289144
-0.0029469665
0.28289144
-0.0031218062
0.28289144
-0.0032966467
0.28289144
-0.0034714872
0.28289144
-0.003646327
0.28289144
0.28289144
-0.0038211673
-0.0015482441
0.28306628
-0.0017230855
0.28306628
-0.0018979252
0.28306628
-0.0020727648
0.28306628
-0.0022476053
0.28306628
-0.0024224458
0.28306628
-0.0025972863
0.28306628
-0.002772126
0.28306628
-0.0029469657
0.28306628
-0.003121807
0.28306628
-0.0032966467
0.28306628
-0.0034714863
0.28306628
-0.003646327
0.28306628
0.28306628
-0.0038211672
-0.001548245
0.28324112
-0.0017230846
0.28324112
-0.0018979251
0.28324112
-0.0020727657
0.28324112
-0.0022476053
0.28324112
-0.002422445
0.28324112
-0.0025972855
0.28324112
-0.002772126
0.28324112
-0.0029469665
0.28324112
-0.0031218062
0.28324112
-0.0032966467
0.28324112
-0.0034714872
0.28324112
-0.0036463271
0.28324112
0.28324112
-0.0038211673
-0.001548245
0.28341596
-0.0017230846
0.28341596
-0.0018979251
0.28341596
-0.0020727648
0.28341596
-0.0022476062
0.28341596
-0.0024224458
0.28341596
-0.0025972863
0.28341596
-0.002772126
0.28341596
-0.0029469665
0.28341596
-0.0031218062
0.28341596
-0.0032966467
0.28341596
-0.0034714863
0.28341596
-0.003646327
0.28341596
0.28341596
-0.0038211672
-0.0015482441
0.2835908
-0.0017230846
0.2835908
-0.0018979243
0.2835908
-0.0020727657
0.2835908
-0.0022476053
0.2835908
-0.0024224458
0.2835908
-0.0025972855
0.2835908
-0.002772126
0.2835908
-0.0029469657
0.2835908
-0.003121807
0.2835908
-0.0032966467
0.2835908
-0.0034714872
0.2835908
-0.003646327
0.2835908
0.2835908
-0.0038211673
-0.001548245
0.28376564
-0.0017230855
0.28376564
-0.0018979252
0.28376564
-0.0020727648
0.28376564
-0.0022476053
0.28376564
-0.0024224458
0.28376564
-0.0025972863
0.28376564
-0.002772126
0.28376564
-0.0029469665
0.28376564
-0.0031218062
0.28376564
-0.0032966467
0.28376564
-0.0034714872
0.28376564
-0.003646327
0.28376564
0.28376564
-0.0038211672
-0.0015482441
0.28394048
-0.0017230846
0.28394048
-0.0018979251
0.28394048
-0.0020727657
0.28394048
-0.0022476053
0.28394048
-0.0024224458
0.28394048
-0.0025972855
0.28394048
-0.002772126
0.28394048
-0.0029469665
0.28394048
-0.0031218062
0.28394048
-0.0032966467
0.28394048
-0.0034714863
0.28394048
-0.0036463271
0.28394048
0.28394048
-0.0038211673
-0.00086154275
0.28411532
-0.0010363824
0.28411532
-0.0012112229
0.28411532
-0.0013860626
0.28411532
-0.0015609031
0.28411532
-0.0017357427
0.28411532
-0.0019105833
0.28411532
-0.0020854238
0.28411532
-0.0022602643
0.28411532
-0.0024351048
0.28411532
-0.0026099444
0.28411532
-0.002784785
0.28411532
-0.0029596248
0.28411532
0.28411532
-0.003134465
-0.00086154275
0.28429016
-0.0010363824
0.28429016
-0.0012112229
0.28429016
-0.0013860634
0.28429016
-0.0015609031
0.28429016
-0.0017357436
0.28429016
-0.0019105841
0.28429016
-0.0020854246
0.28429016
-0.0022602634
0.28429016
-0.0024351039
0.28429016
-0.0026099444
0.28429016
-0.0027847841
0.28429016
-0.0029596248
0.28429016
0.28429016
-0.003134465
-0.00086154189
0.284465
-0.0010363833
0.284465
-0.0012112229
0.284465
-0.0013860626
0.284465
-0.0015609039
0.284465
-0.0017357436
0.284465
-0.0019105833
0.284465
-0.0020854238
0.284465
-0.0022602643
0.284465
-0.0024351039
0.284465
-0.0026099444
0.284465
-0.002784785
0.284465
-0.0029596248
0.284465
0.284465
-0.003134465
-0.00086154275
0.28463984
-0.0010363824
0.28463984
-0.0012112229
0.28463984
-0.0013860634
0.28463984
-0.0015609031
0.28463984
-0.0017357436
0.28463984
-0.0019105841
0.28463984
-0.0020854238
0.28463984
-0.0022602643
0.28463984
-0.0024351048
0.28463984
-0.0026099444
0.28463984
-0.002784785
0.28463984
-0.0029596249
0.28463984
0.28463984
-0.003134465
-0.00086154275
0.28481468
-0.0010363824
0.28481468
-0.0012112229
0.28481468
-0.0013860626
0.28481468
-0.0015609031
0.28481468
-0.0017357436
0.28481468
-0.0019105833
0.28481468
-0.0020854238
0.28481468
-0.0022602634
0.28481468
-0.0024351039
0.28481468
-0.0026099444
0.28481468
-0.0027847841
0.28481468
-0.0029596248
0.28481468
0.28481468
-0.003134465
-0.00086154189
0.28498952
-0.0010363824
0.28498952
-0.0012112229
0.28498952
-0.0013860634
0.28498952
-0.0015609031
0.28498952
-0.0017357427
0.28498952
-0.0019105841
0.28498952
-0.0020854238
0.28498952
-0.0022602643
0.28498952
-0.0024351039
0.28498952
-0.0026099436
0.28498952
-0.002784785
0.28498952
-0.0029596248
0.28498952
0.28498952
-0.003134465
-0.00086154275
-0.0010363833
-0.0012112229
-0.0013860626
-0.0015609031
-0.0017357436
-0.0019105833
-0.0020854238
-0.0022602643
-0.0024351048
-0.0026099444
-0.0027847841
-0.0029596248
-0.003134465
-0.28603856
0.0031724406
0.28638824
-0.0035221211
-0.28568888
0.0031724407
-0.0035221211
-0.2853392
0.0031724406
-0.0035221211
-0.28498952
0.0031724407
-0.0035221211
-0.28463984
0.0031724406
-0.0035221211
-0.28429016
0.0031724407
-0.0035221211
-0.28394048
0.0031724406
-0.0035221211
-0.2835908
0.0031724407
-0.0035221211
-0.28324112
0.0031724406
-0.0035221211
0.0031724407
-0.0035221211
-0.28603856
0.0028227603
0.28638824
-0.28568888
0.0028227602
-0.2853392
0.0028227602
-0.28498952
0.0028227601
-0.28463984
0.0028227601
-0.28429016
0.002822761
-0.28394048
0.0028227601
-0.2835908
0.0028227601
-0.28324112
0.0028227601
0.0028227601
-0.28603856
0.00247308
0.28638824
-0.28568888
0.0024730799
-0.2853392
0.00247308
-0.28498952
0.00247308
-0.28463984
0.0024730791
-0.28429016
0.0024730799
-0.28394048
0.00247308
-0.2835908
0.00247308
-0.28324112
0.0024730799
0.00247308
-0.28603856
0.0021233998
0.28638824
-0.28568888
0.0021233989
-0.2853392
0.0021233998
-0.28498952
0.0021233998
-0.28463984
0.0021233989
-0.28429016
0.0021233998
-0.28394048
0.0021233998
-0.2835908
0.0021233989
-0.28324112
0.0021233998
0.0021233998
-0.28603856
0.0017737196
0.28638824
-0.28568888
0.0017737188
-0.2853392
0.0017737196
-0.28498952
0.0017737188
-0.28463984
0.0017737188
-0.28429016
0.0017737196
-0.28394048
0.0017737188
-0.2835908
0.0017737196
-0.28324112
0.0017737188
0.0017737188
-0.28603856
0.0014240386
0.28638824
-0.28568888
0.0014240386
-0.2853392
0.0014240386
-0.28498952
0.0014240386
-0.28463984
0.0014240386
-0.28429016
0.0014240386
-0.28394048
0.0014240394
-0.2835908
0.0014240386
-0.28324112
0.0014240386
0.0014240386
-0.28603856
0.0010743584
0.28638824
-0.28568888
0.0010743584
-0.2853392
0.0010743584
-0.28498952
0.0010743576
-0.28463984
0.0010743584
-0.28429016
0.0010743584
-0.28394048
0.0010743584
-0.2835908
0.0010743584
-0.28324112
0.0010743584
0.0010743584
-0.28603856
0.00072467825
0.28638824
-0.28568888
0.00072467739
-0.2853392
0.00072467825
-0.28498952
0.00072467825
-0.28463984
0.0007246774
-0.28429016
0.00072467825
-0.28394048
0.0007246774
-0.2835908
0.00072467825
-0.28324112
0.00072467825
0.0007246774
-0.28603856
0.00037499723
0.28638824
-0.28568888
0.00037499723
-0.2853392
0.00037499809
-0.28498952
0.00037499723
-0.28463984
0.00037499723
-0.28429016
0.00037499808
-0.28394048
0.00037499723
-0.2835908
0.00037499723
-0.28324112
0.00037499808
0.00037499723
-0.28603856
2.5317061e-05
0.28638824
-0.28568888
2.5317057e-05
-0.2853392
2.5317061e-05
-0.28498952
2.5317061e-05
-0.28463984
2.5317061e-05
-0.28429016
2.5317057e-05
-0.28394048
2.5317061e-05
-0.2835908
2.5317061e-05
-0.28324112
2.5317057e-05
2.5317061e-05
-0.28603856
-0.00032436311
0.28638824
-0.28568888
-0.00032436311
-0.2853392
-0.00032436311
-0.28498952
-0.00032436396
-0.28463984
-0.00032436311
-0.28429016
-0.00032436311
-0.28394048
-0.00032436311
-0.2835908
-0.00032436311
-0.28324112
-0.00032436397
-0.00032436311
-0.28603856
-0.00067404328
0.28638824
-0.28568888
-0.00067404414
-0.2853392
-0.00067404328
-0.28498952
-0.00067404328
-0.28463984
-0.00067404413
-0.28429016
-0.00067404328
-0.28394048
-0.00067404413
-0.2835908
-0.00067404328
-0.28324112
-0.00067404414
-0.00067404328
-0.28603856
-0.0010237243
0.28638824
-0.28568888
-0.0010237243
-0.2853392
-0.0010237234
-0.28498952
-0.0010237243
-0.28463984
-0.0010237243
-0.28429016
-0.0010237243
-0.28394048
-0.0010237234
-0.2835908
-0.0010237243
-0.28324112
-0.0010237243
-0.0010237243
-0.28603856
0.28638824
-0.28568888
-0.2853392
-0.28498952
-0.28463984
-0.28429016
-0.28394048
-0.2835908
-0.28324112
0.00093580153
0.28648904
-0.0010365989
0.00083500413
0.28648904
0.00073420673
0.28648904
0.00063340916
0.28648904
0.00053261159
0.28648904
0.00043181487
0.28648904
0.0003310173
0.28648904
0.00023021972
0.28648904
0.00012942301
0.28648904
2.8624577e-05
0.28648904
-7.2172994e-05
0.28648904
-0.00017297057
0.28648904
-0.00027376728
0.28648904
0.28648904
0.00093580153
0.28658984
-0.001036599
0.00083500413
0.28658984
0.00073420673
0.28658984
0.00063340916
0.28658984
0.00053261158
0.28658984
0.00043181401
0.28658984
0.00033101644
0.28658984
0.00023021972
0.28658984
0.00012942215
0.28658984
2.8625434e-05
0.28658984
-7.2172137e-05
0.28658984
-0.00017296971
0.28658984
-0.00027376728
0.28658984
0.28658984
0.00093580162
0.28669064
-0.0010365989
0.00083500413
0.28669064
0.00073420673
0.28669064
0.00063340916
0.28669064
0.00053261244
0.28669064
0.00043181487
0.28669064
0.0003310173
0.28669064
0.00023021887
0.28669064
0.00012942215
0.28669064
2.8624581e-05
0.28669064
-7.2172998e-05
0.28669064
-0.00017297057
0.28669064
-0.00027376729
0.28669064
0.28669064
0.00093580153
0.28679143
-0.0010365989
0.00083500413
0.28679143
0.00073420673
0.28679143
0.00063341001
0.28679143
0.00053261159
0.28679143
0.00043181401
0.28679143
0.0003310173
0.28679143
0.00023021972
0.28679143
0.00012942215
0.28679143
2.8624577e-05
0.28679143
-7.2172137e-05
0.28679143
-0.00017296971
0.28679143
-0.00027376728
0.28679143
0.28679143
0.00093580153
0.28689223
-0.0010365989
0.00083500413
0.28689223
0.00073420673
0.28689223
0.00063340916
0.28689223
0.00053261158
0.28689223
0.00043181487
0.28689223
0.0003310173
0.28689223
0.00023021972
0.28689223
0.00012942215
0.28689223
2.8624577e-05
0.28689223
-7.2172994e-05
0.28689223
-0.00017296971
0.28689223
-0.00027376814
0.28689223
0.28689223
0.00093580153
0.28699303
-0.001036599
0.00083500413
0.28699303
0.00073420673
0.28699303
0.00063340916
0.28699303
0.00053261244
0.28699303
0.00043181401
0.28699303
0.00033101644
0.28699303
0.00023021972
0.28699303
0.00012942215
0.28699303
2.8625434e-05
0.28699303
-7.2172137e-05
0.28699303
-0.00017297056
0.28699303
-0.00027376728
0.28699303
0.28699303
0.00093580153
0.28709383
-0.0010365989
0.00083500413
0.28709383
0.00073420673
0.28709383
0.00063340916
0.28709383
0.00053261159
0.28709383
0.00043181487
0.28709383
0.0003310173
0.28709383
0.00023021973
0.28709383
0.00012942215
0.28709383
2.8624581e-05
0.28709383
-7.2172998e-05
0.28709383
-0.00017296971
0.28709383
-0.00027376729
0.28709383
0.28709383
0.00093580153
0.28719462
-0.0010365989
0.00083500413
0.28719462
0.00073420673
0.28719462
0.00063340916
0.28719462
0.00053261159
0.28719462
0.00043181487
0.28719462
0.0003310173
0.28719462
0.00023021972
0.28719462
0.00012942215
0.28719462
2.8624577e-05
0.28719462
-7.2172994e-05
0.28719462
-0.00017296971
0.28719462
-0.00027376728
0.28719462
0.28719462
0.00093580153
0.28729542
-0.001036599
0.00083500413
0.28729542
0.00073420673
0.28729542
0.00063340916
0.28729542
0.00053261244
0.28729542
0.00043181401
0.28729542
0.00033101644
0.28729542
0.00023021972
0.28729542
0.00012942215
0.28729542
2.8625434e-05
0.28729542
-7.2172137e-05
0.28729542
-0.00017297057
0.28729542
-0.00027376728
0.28729542
0.28729542
0.00093580153
0.28739622
-0.0010365989
0.00083500413
0.28739622
0.00073420673
0.28739622
0.00063340916
0.28739622
0.00053261159
0.28739622
0.00043181487
0.28739622
0.0003310173
0.28739622
0.00023021972
0.28739622
0.00012942215
0.28739622
2.8624577e-05
0.28739622
-7.2172994e-05
0.28739622
-0.00017296971
0.28739622
-0.00027376814
0.28739622
0.28739622
0.00093580153
0.28749702
-0.0010365989
0.00083500413
0.28749702
0.00073420673
0.28749702
0.00063341001
0.28749702
0.00053261159
0.28749702
0.00043181401
0.28749702
0.0003310173
0.28749702
0.00023021972
0.28749702
0.00012942215
0.28749702
2.8624581e-05
0.28749702
-7.2172141e-05
0.28749702
-0.00017296971
0.28749702
-0.00027376728
0.28749702
0.28749702
0.00093580162
0.28759781
-0.0010365989
0.00083500413
0.28759781
0.00073420673
0.28759781
0.00063340916
0.28759781
0.00053261244
0.28759781
0.00043181487
0.28759781
0.0003310173
0.28759781
0.00023021887
0.28759781
0.00012942215
0.28759781
2.8624577e-05
0.28759781
-7.2172994e-05
0.28759781
-0.00017297057
0.28759781
-0.00027376729
0.28759781
0.28759781
0.00093580153
0.28769861
-0.001036599
0.00083500413
0.28769861
0.00073420673
0.28769861
0.00063340916
0.28769861
0.00053261159
0.28769861
0.00043181401
0.28769861
0.00033101644
0.28769861
0.00023021972
0.28769861
0.00012942215
0.28769861
2.8625434e-05
0.28769861
-7.2172137e-05
0.28769861
-0.00017296971
0.28769861
-0.00027376728
0.28769861
0.28769861
0.00093580153
0.28779941
-0.0010365989
0.00083500413
0.28779941
0.00073420673
0.28779941
0.00063340916
0.28779941
0.00053261159
0.28779941
0.00043181487
0.28779941
0.0003310173
0.28779941
0.00023021972
0.28779941
0.000129423
0.28779941
2.8624577e-05
0.28779941
-7.2172994e-05
0.28779941
-0.00017297056
0.28779941
-0.00027376728
0.00029340914
0.00028716639
0.00028092364
0.28780565
0.00027468089
0.28780565
0.00026843814
0.28780565
0.0002621954
0.28780565
0.00025595265
0.28780565
0.00024970991
0.28780565
0.00024346715
0.28780565
0.00023722441
0.28780565
0.00023098166
0.28780565
0.28780565
0.00022473891
0.00028092364
0.00027468089
0.28781189
0.00026843815
0.28781189
0.0002621954
0.28781189
0.00025595265
0.28781189
0.0002497099
0.28781189
0.00024346716
0.28781189
0.00023722441
0.28781189
0.00023098166
0.28781189
0.28781189
0.00022473892
0.00027468089
0.00026843814
0.0002621954
0.28781814
0.00025595265
0.28781814
0.0002497099
0.28781814
0.00024346716
0.28781814
0.00023722441
0.28781814
0.00023098166
0.28781814
0.28781814
0.00022473891
0.0002621954
0.00025595265
0.28782438
0.0002497099
0.28782438
0.00024346715
0.28782438
0.00023722441
0.28782438
0.00023098166
0.28782438
0.28782438
0.00022473892
0.00025595265
0.0002497099
0.00024346716
0.28783062
0.00023722441
0.28783062
0.00023098166
0.28783062
0.28783062
0.00022473891
0.00024346716
0.00023722441
0.28783686
0.00023098166
0.28783686
0.28783686
0.00022473892
0.00023722441
0.00023098166
0.28784311
0.28784311
0.00022473891
0.00023098166
0.28784935
0.00022473891
0.00022473892
-0.016280429
0.0010354735
-0.016160445
0.0010576432
-0.01605459
0.0010730861
-0.015959628
0.0010800236
-0.01587022
0.0010776224
-0.015781807
0.0010677611
-0.015696622
0.0010568907
-0.015615933
0.0010451621
-0.015541002
0.0010329709
0.0010199904
-0.015471709
-0.018078273
0.0010781661
-0.017962028
0.0011022168
-0.017847035
0.001118491
-0.017733247
0.0011254795
-0.017620459
0.0011226866
-0.017508674
0.001112353
-0.017397938
0.001100978
-0.01728812
0.001088493
-0.017178748
0.0010750676
0.0010599807
-0.017068624
-0.018274125
0.0010089639
-0.018158911
0.0010320823
-0.018042412
0.0010476898
-0.017925503
0.0010544444
-0.017809095
0.0010519955
-0.017693716
0.0010425182
-0.017579367
0.001032036
-0.017466067
0.0010204799
-0.017353895
0.0010080092
0.00099397985
-0.0172434
-0.01829594
0.00090000612
-0.018181288
0.00092117811
-0.018065229
0.00093547658
-0.017948568
0.0009416831
-0.017832141
0.00093948177
-0.017716577
0.00093086518
-0.017601966
0.00092132783
-0.017488399
0.00091081393
-0.01737595
0.00089948344
0.00088677453
-0.01726476
-0.018297372
0.00078764101
-0.018182765
0.00080670167
-0.018066729
0.00081957425
-0.017950072
0.00082516267
-0.017833636
0.00082318263
-0.017718062
0.00081542816
-0.017603441
0.00080684493
-0.017489871
0.00079738281
-0.017377433
0.00078718549
0.00077574611
-0.017266263
-0.01829742
0.00067515844
-0.018182815
0.00069210144
-0.018066779
0.00070354403
-0.017950123
0.00070851152
-0.017833687
0.00070675148
-0.017718112
0.00069985874
-0.017603491
0.00069222921
-0.017489921
0.0006838185
-0.017377484
0.00067475436
0.00066458618
-0.017266319
-0.018297421
0.00056267143
-0.018182816
0.00057749644
-0.018066781
0.00058750877
-0.017950124
0.00059185531
-0.017833688
0.00059031531
-0.017718113
0.00058428409
-0.017603492
0.00057760838
-0.017489922
0.00057024885
-0.017377486
0.00056231782
0.00055342068
-0.01726632
-0.018297421
0.00045018416
-0.018182816
0.00046289142
-0.018066781
0.00047147341
-0.017950124
0.00047519898
-0.017833688
0.00047387901
-0.017718113
0.0004687094
-0.017603492
0.00046298727
-0.017489923
0.00045667925
-0.017377486
0.00044988116
0.00044225495
-0.01726632
-0.018297421
0.00033769705
-0.018182816
0.00034828639
-0.018066781
0.00035543794
-0.017950124
0.00035854273
-0.017833688
0.00035744264
-0.017718113
0.00035313471
-0.017603492
0.00034836624
-0.017489923
0.00034310955
-0.017377486
0.00033744441
0.00033108939
-0.01726632
-0.018297421
0.00022520977
-0.018182816
0.00023368136
-0.018066781
0.00023940258
-0.017950124
0.0002418864
-0.017833688
0.00024100634
-0.017718113
0.00023755993
-0.017603492
0.00023374521
-0.017489923
0.00022953986
-0.017377486
0.00022500783
0.00021992366
-0.01726632
-0.018297421
0.00011272267
-0.018182816
0.00011907625
-0.018066781
0.0001233672
-0.017950124
0.00012523008
-0.017833688
0.00012457005
-0.017718113
0.00012198524
-0.017603492
0.00011912418
-0.017489923
0.00011597017
-0.017377486
0.00011257108
0.0001087581
-0.01726632
-0.018297421
2.3547302e-07
-0.018182816
4.4711379e-06
-0.018066781
7.3319182e-06
-0.017950124
8.5736587e-06
-0.017833688
8.1337591e-06
-0.017718113
6.4105518e-06
-0.017603492
4.5031502e-06
-0.017489923
2.4004702e-06
-0.017377486
1.3442017e-07
-2.407629e-06
-0.01726632
-0.018297421
-0.00011225172
-0.018182816
-0.0001101338
-0.018066781
-0.00010870354
-0.017950124
-0.00010808258
-0.017833688
-0.00010830262
-0.017718113
-0.00010916422
-0.017603492
-0.00011011788
-0.017489923
-0.00011116922
-0.017377486
-0.00011230225
-0.00011357318
-0.01726632
-0.018297421
-0.018182816
-0.018066781
-0.017950124
-0.017833688
-0.017718113
-0.017603492
-0.017489923
-0.017377486
-0.01726632
-0.015490499
0.0018344738
-0.015514788
0.001763865
-0.015531414
0.0016818738
-0.015548569
0.0016101875
-0.015576725
0.0015479625
-0.015617153
0.0014816148
-0.015658835
0.0014021058
-0.015688453
0.0013170087
-0.015708155
0.0012473764
-0.01572454
0.0011961312
-0.015742514
0.0011565518
-0.015761256
0.0011195417
-0.015787685
0.0010889099
0.0010586618
-0.015826028
-0.017001841
0.0020106474
-0.016944111
0.0019307404
-0.016890527
0.0018413113
-0.016842267
0.0017634622
-0.016799625
0.0016952224
-0.016762769
0.0016224313
-0.016731518
0.0015365332
-0.016705235
0.0014460667
-0.016682956
0.0013724091
-0.016664104
0.0013180448
-0.016648403
0.0012758285
-0.016635538
0.0012364506
-0.01662538
0.0012035255
0.0011703902
-0.016617739
-0.017158142
0.0019936545
-0.017080344
0.0019159995
-0.017009838
0.0018303236
-0.016945924
0.0017556726
-0.016887893
0.0016899576
-0.016836163
0.0016198936
-0.016791747
0.001537726
-0.016754894
0.0014517269
-0.016724148
0.0013818184
-0.016697958
0.0013301404
-0.016675378
0.0012898758
-0.016656193
0.0012523305
-0.016639957
0.0012206773
0.001188383
-0.016626767
-0.017177343
0.0019122748
-0.017097067
0.001841029
-0.017024589
0.0017626872
-0.016958922
0.0016944382
-0.016899263
0.0016343369
-0.016846006
0.0015702655
-0.01680024
0.00149519
-0.0167623
0.0014166884
-0.01673072
0.0013529059
-0.016703846
0.0013057579
-0.016680643
0.0012690113
-0.016660865
0.0012347453
-0.016643985
0.0012058322
0.0011762805
-0.016630072
-0.017178679
0.0018248948
-0.017098227
0.0017607483
-0.017025608
0.0016902241
-0.016959815
0.0016287857
-0.016900033
0.0015746813
-0.016846659
0.0015170034
-0.016800794
0.0014494228
-0.016762778
0.0013787607
-0.016731141
0.001321349
-0.016704219
0.0012789103
-0.016680973
0.0012458336
-0.016661153
0.0012149897
-0.016644225
0.0011889626
0.0011623579
-0.016630253
-0.017178729
0.0017373131
-0.017098268
0.001680293
-0.017025643
0.0016176042
-0.016959844
0.0015629917
-0.016900056
0.0015148983
-0.016846678
0.0014636287
-0.016800808
0.0014035564
-0.01676279
0.0013407453
-0.016731151
0.0012897125
-0.016704227
0.0012519889
-0.016680979
0.0012225874
-0.016661157
0.0011951703
-0.016644228
0.0011720349
0.0011483859
-0.016630254
-0.017178731
0.001649724
-0.017098269
0.0015998313
-0.017025643
0.0015449787
-0.016959844
0.0014971927
-0.016900057
0.001455111
-0.016846678
0.00141025
-0.016800808
0.0013576868
-0.01676279
0.0013027271
-0.016731151
0.0012580733
-0.016704227
0.0012250652
-0.016680979
0.0011993388
-0.016661157
0.001175349
-0.016644228
0.0011551055
0.0011344126
-0.016630254
-0.017178731
0.0015621348
-0.017098269
0.0015193695
-0.017025644
0.001472353
-0.016959844
0.0014313936
-0.016900057
0.0013953236
-0.016846678
0.0013568712
-0.016800809
0.0013118171
-0.01676279
0.0012647088
-0.016731151
0.0012264341
-0.016704227
0.0011981416
-0.016680979
0.0011760902
-0.016661157
0.0011555275
-0.016644228
0.001138176
0.0011204392
-0.016630254
-0.017178731
0.0014745454
-0.017098269
0.0014389078
-0.017025643
0.0013997273
-0.016959844
0.0013655945
-0.016900057
0.0013355361
-0.016846678
0.0013034925
-0.016800809
0.0012659474
-0.01676279
0.0012266905
-0.016731151
0.001194795
-0.016704227
0.0011712178
-0.016680979
0.0011528417
-0.016661157
0.0011357061
-0.016644228
0.0011212464
0.0011064658
-0.016630254
-0.017178731
0.0013869562
-0.017098269
0.001358446
-0.017025644
0.0013271016
-0.016959844
0.0012997955
-0.016900057
0.0012757487
-0.016846678
0.0012501139
-0.016800809
0.0012200777
-0.01676279
0.0011886722
-0.016731151
0.0011631558
-0.016704227
0.001144294
-0.016680979
0.0011295931
-0.016661157
0.0011158847
-0.016644228
0.001104317
0.0010924924
-0.016630254
-0.017178731
0.0012993668
-0.017098269
0.0012779843
-0.017025644
0.001254476
-0.016959844
0.0012339963
-0.016900057
0.0012159613
-0.016846678
0.0011967351
-0.016800809
0.001174208
-0.01676279
0.0011506539
-0.016731151
0.0011315165
-0.016704227
0.0011173702
-0.016680979
0.0011063446
-0.016661157
0.0010960632
-0.016644228
0.0010873874
0.0010785191
-0.016630254
-0.017178731
0.0012117776
-0.017098269
0.0011975225
-0.017025644
0.0011818503
-0.016959844
0.0011681972
-0.016900057
0.0011561738
-0.016846678
0.0011433564
-0.016800809
0.0011283384
-0.01676279
0.0011126356
-0.016731151
0.0010998773
-0.016704227
0.0010904464
-0.016680979
0.0010830961
-0.016661157
0.0010762418
-0.016644228
0.0010704579
0.0010645457
-0.016630254
-0.017178731
0.0011241882
-0.017098269
0.0011170607
-0.017025644
0.0011092246
-0.016959844
0.0011023981
-0.016900057
0.0010963864
-0.016846678
0.0010899776
-0.016800809
0.0010824686
-0.01676279
0.0010746173
-0.016731151
0.0010682382
-0.016704227
0.0010635227
-0.016680979
0.0010598474
-0.016661157
0.0010564204
-0.016644228
0.0010535284
0.0010505723
-0.016630254
-0.017178731
-0.017098269
-0.017025644
-0.016959844
-0.016900057
-0.016846678
-0.016800809
-0.01676279
-0.016731151
-0.016704227
-0.016680979
-0.016661157
-0.016644228
-0.016630254
-0.0032059385
0.018146696
-0.002889756
0.018146696
-0.0025735735
0.018146696
-0.002257391
0.018146696
-0.0019412084
0.018146696
-0.0016250258
0.018146696
-0.0013088433
0.018146696
-0.00099266078
0.018146696
-0.00067647834
0.018146696
-0.00036030483
0.018146696
0.018146707
-0.0032292429
0.017853818
-0.0029363647
0.017853818
-0.0026434864
0.017853818
-0.0023506082
0.017853818
-0.00205773
0.017853818
-0.0017648518
0.017853818
-0.0014719736
0.017853818
-0.0011790954
0.017853818
-0.00088621736
0.017853818
-0.00059335169
0.017853818
-0.00030102537
0.017853828
-3.1607319e-05
0.017855275
0.00022581395
0.01785471
0.01801395
-0.0032555928
0.01758729
-0.0029890646
0.01758729
-0.0027225363
0.01758729
-0.002456008
0.01758729
-0.0021894798
0.01758729
-0.0019229515
0.01758729
-0.0016564232
0.01758729
-0.001389895
0.01758729
-0.0011233668
0.01758729
-0.00085684732
0.01758729
-0.00059048037
0.017587292
-0.00033103423
0.017587593
-8.3660027e-05
0.017587531
0.017636731
-0.0032856767
0.017350845
-0.0030492322
0.017350845
-0.0028127878
0.017350845
-0.0025763435
0.017350845
-0.002339899
0.017350845
-0.0021034546
0.017350845
-0.0018670102
0.017350845
-0.0016305657
0.017350845
-0.0013941214
0.017350845
-0.0011576789
0.017350845
-0.00092123579
0.017350842
-0.00068411312
0.017350666
-0.00042971457
0.017349382
0.017274868
-0.0033205996
0.017149324
-0.0031190781
0.017149324
-0.0029175567
0.017149324
-0.0027160352
0.017149324
-0.0025145136
0.017149324
-0.0023129922
0.017149324
-0.0021114707
0.017149324
-0.0019099493
0.017149324
-0.0017084277
0.017149324
-0.0015069011
0.017149324
-0.001305054
0.017149307
-0.0010914986
0.017148514
-0.0008252542
0.017145568
0.016930585
-0.0033582949
0.016985498
-0.0031944689
0.016985498
-0.0030306427
0.016985498
-0.0028668166
0.016985498
-0.0027029904
0.016985498
-0.0025391643
0.016985498
-0.0023753382
0.016985498
-0.0022115121
0.016985498
-0.0020476857
0.016985498
-0.0018838434
0.016985498
-0.0017191525
0.016985459
-0.0015286572
0.016983947
-0.0012475625
0.016979033
0.016615073
-0.0033946975
0.016858074
-0.0032672739
0.016858074
-0.0031398503
0.016858074
-0.0030124267
0.016858074
-0.0028850031
0.016858074
-0.0027575795
0.016858074
-0.002630156
0.016858074
-0.0025027324
0.016858074
-0.0023753083
0.016858074
-0.0022478514
0.016858074
-0.0021188354
0.016858006
-0.001949104
0.016855852
-0.0016501352
0.016848766
0.016345445
-0.0034239493
0.016759902
-0.0033257775
0.016759902
-0.0032276057
0.016759902
-0.0031294339
0.016759902
-0.0030312622
0.016759902
-0.0029330904
0.016759902
-0.0028349185
0.016759902
-0.0027367467
0.016759902
-0.0026385738
0.016759902
-0.0025403476
0.016759902
-0.0024397211
0.016759802
-0.0022852973
0.016757218
-0.0019687389
0.016748606
0.01613351
-0.0034465657
0.016684347
-0.0033710103
0.016684347
-0.003295455
0.016684347
-0.0032198995
0.016684347
-0.0031443441
0.016684347
-0.0030687888
0.016684347
-0.0029932334
0.016684347
-0.002917678
0.016684347
-0.0028421211
0.016684347
-0.0027664919
0.016684346
-0.0026877455
0.016684222
-0.0025453599
0.016681384
-0.0022137458
0.016672118
0.015971121
-0.0034680285
-0.0034139359
-0.0033598433
-0.0033057508
-0.0032516582
-0.0031975656
-0.0031434731
-0.0030893805
-0.0030352858
-0.0029811012
-0.0029231222
-0.0027927313
-0.0024463504
-0.00361742
0.018107414
-0.0034136727
0.018107414
-0.0032099255
0.018107414
-0.0030061783
0.018107414
-0.002802431
0.018107414
-0.0025986837
0.018107414
-0.0023949364
0.018107414
-0.0021911893
0.018107414
-0.0019874418
0.018107414
-0.0017836857
0.018107413
-0.0015794307
0.01810739
-0.0013579628
0.018106462
-0.0010675333
0.018101032
0.017816
-0.0036331454
0.017919392
-0.0034451237
0.017919392
-0.0032571018
0.017919392
-0.0030690801
0.017919392
-0.0028810583
0.017919392
-0.0026930365
0.017919392
-0.0025050147
0.017919392
-0.0023169928
0.017919392
-0.0021289708
0.017919392
-0.0019409353
0.017919392
-0.0017521703
0.017919359
-0.0015405458
0.01791817
-0.0012439084
0.017912034
0.017565907
-0.0036490073
0.017747232
-0.0034768473
0.017747232
-0.0033046873
0.017747232
-0.0031325273
0.017747232
-0.0029603673
0.017747232
-0.0027882073
0.017747232
-0.0026160473
0.017747232
-0.0024438873
0.017747232
-0.002271727
0.017747232
-0.0020995475
0.017747232
-0.0019263706
0.017747188
-0.001724533
0.017745746
-0.0014209361
0.01773905
0.017332075
-0.0036651568
0.017591221
-0.0035091462
0.017591221
-0.0033531358
0.017591221
-0.0031971253
0.017591221
-0.0030411148
0.017591221
-0.0028851043
0.017591221
-0.0027290939
0.017591221
-0.0025730834
0.017591221
-0.0024170724
0.017591221
-0.0022610353
0.017591221
-0.0021036921
0.017591166
-0.0019115924
0.017589472
-0.0016001725
0.017582354
0.017113924
-0.0036819648
0.017452019
-0.0035427622
0.017452019
-0.0034035598
0.017452019
-0.0032643573
0.017452019
-0.0031251548
0.017452019
-0.0029859522
0.017452019
-0.0028467497
0.017452019
-0.0027075473
0.017452019
-0.0025683441
0.017452019
-0.0024291067
0.017452018
-0.0022882059
0.017451949
-0.0021060789
0.017450008
-0.0017858693
0.017442554
0.016910732
-0.0036997675
0.017330619
-0.0035783678
0.017330619
-0.003456968
0.017330619
-0.0033355684
0.017330619