/*--------------------------------*- C++ -*----------------------------------*\
| =========                 |                                                 |
| \\      /  F ield         | OpenFOAM: The Open Source CFD Toolbox           |
|  \\    /   O peration     | Version:  2206                                  |
|   \\  /    A nd           | Website:  www.openfoam.com                      |
|    \\/     M anipulation  |                                                 |
\*---------------------------------------------------------------------------*/
FoamFile
{
    version     2.0;
    format      ascii;
    arch        "LSB;label=32;scalar=64";
    class       volScalarField;
    location    "0.01";
    object      T;
}
// * * * * * * * * * * * * * * * * * * * * * * * * * * * * * * * * * * * * * //

dimensions      [0 0 0 1 0 0 0];

internalField   nonuniform List<scalar> 
1396
(
1
1
1
1
1
1
1
1
1
1
1
1
1
1
1
1
1
1
1
1
1
1
1
1
1
1
1
1
1
1
1
1
1
1
1
1
1
1
1
1
1
1
1
1
1
1
1
1
1
1
1
1
1
1
1
1
1
1
1
1
1
1
1
1
1
1
1
1
1
1
1
1
1
1
1
1
1
1
1
1
1
1
1
1
1
1
1
1
1
1
1
1
1
1
1
1
1
1
1
1
1
1
1
1
1
1
1
1
1
1
1
1
1
1
1
1
1
1
1
1
1
1
1
1
1
1
1
1
1
1
1
1
1
1
1
1
1
1
1
1
1
1
1
1
1
1
1
1
1
1
1
1
1
1
1
1
1
1
1
1
1
1
1
1
1
1
1
1
1
1
1
1
1
1
1
1
1
1
1
1
1
1
1
1
1
1
1
1
1
1
1
1
1
1
1
1
1
1
1
1
1
1
1
1
1
1
1
1
1
1
1
1
1
1
1
1
1
1
1
1
1
1
1
1
1
1
1
1
1
1
1
1
1
1
1
1
1
1
1
1
1
1
1
1
1
1
1
1
1
1
1
1
1
1
1
1
1
1
1
1
1
1
1
1
1
1
1
1
1
1
1
1
1
1
1
1
1
1
1
1
1
1
1
1
1
1
1
1
1
1
1
1
1
1
1
1
1
1
1
1
1
1
1
1
1
1
1
1
1
1
1
1
1
1
1
1
1
1
1
1
1
1
1
1
1
1
1
1
1
1
1
1
1
1
1
1
1
1
1
1
1
1
1
1
1
1
1
1
1
1
1
1
1
1
1
1
1
1
1
1
1
1
1
1
1
1
1
1
1
1
1
1
1
1
1
1
1
1
1
1
1
1
1
1
1
1
1
1
1
1
1
1
1
1
1
1
1
1
1
1
1
1
1
1
1
1
1
1
1
1
1
1
1
1
1
1
1
1
1
1
1
1
1
1
1
1
1
1
1
1
1
1
1
1
1
1
1
1
1
1
1
1
1
1
1
1
1
1
1
1
1
1
1
1
1
1
1
1
1
1
1
1
1
1
1
1
1
1
1
1
1
1
1
1
1
1
1
1
1
1
1
1
1
1
1
1
1
1
1
1
1
1
1
1
1
1
1
1
1
1
1
1
1
1
1
1
1
1
1
1
1
1
1
1
1
1
1
1
1
1
1
1
1
1
1
1
1
1
1
1
1
1
1
1
1
1
1
1
1
1
1
1
1
1
1
1
1
1
1
1
1
1
1
1
1
1
1
1
1
1
1
1
1
1
1
1
1
1
1
1
1
1
1
1
1
1
1
1
1
1
1
1
1
1
1
1
1
1
1
1
1
1
1
1
1
1
1
1
1
1
1
1
1
1
1
1
1
1
1
1
1
1
1
1
1
1
1
1
1
1
1
1
1
1
1
1
1
1
1
1
1
1
1
1
1
0.95777706
0.95724966
0.9568926
0.95675226
0.95678482
0.95696679
0.95728323
0.95770305
0.95828988
0.95914799
0.99387096
0.9937146
0.99362973
0.99360615
0.99362142
0.99366019
0.99370951
0.99375939
0.99379879
0.99382484
0.99947531
0.99945507
0.99943977
0.99942971
0.99942481
0.9994241
0.99942518
0.99942672
0.99942983
0.99943696
0.99996556
0.99996386
0.99996264
0.9999619
0.99996156
0.99996143
0.99996132
0.99996113
0.99996076
0.99996033
0.99999888
0.99999881
0.99999876
0.99999873
0.99999872
0.99999871
0.9999987
0.99999869
0.99999865
0.99999859
0.99999997
0.99999997
0.99999997
0.99999996
0.99999996
0.99999996
0.99999996
0.99999996
0.99999996
0.99999996
1
1
1
1
1
1
1
1
1
1
1
1
1
1
1
1
1
1
1
1
1
1
1
1
1
1
1
1
1
1
1
1
1
1
1
1
1
1
1
1
1
1
1
1
1
1
1
1
1
1
1
1
1
1
1
1
1
1
1
1
1
1
1
1
1
1
1
1
1
1
1
1
1
1
1
1
1
1
1
1
0.96018202
0.96189252
0.96371853
0.96547464
0.96723189
0.96904766
0.97084537
0.97245999
0.97380814
0.97490485
0.97584926
0.97674963
0.9777944
0.97920614
0.99388367
0.99433798
0.9947867
0.99519345
0.99557713
0.99596215
0.99634174
0.99667825
0.99694058
0.99714174
0.99730691
0.99745793
0.99761191
0.99779538
0.99944673
0.99950177
0.99954283
0.99957922
0.99961308
0.99964708
0.99968042
0.99970924
0.99973113
0.99974795
0.99976202
0.99977557
0.99979103
0.99981317
0.99996039
0.99996488
0.99996843
0.99997145
0.99997429
0.99997714
0.99997984
0.99998206
0.99998367
0.99998489
0.99998593
0.99998696
0.99998817
0.99999005
0.9999985
0.99999872
0.99999887
0.999999
0.99999912
0.99999924
0.99999935
0.99999943
0.99999949
0.99999954
0.99999957
0.99999961
0.99999966
0.99999973
0.99999995
0.99999996
0.99999997
0.99999997
0.99999998
0.99999998
0.99999998
0.99999998
0.99999999
0.99999999
0.99999999
0.99999999
0.99999999
0.99999999
1
1
1
1
1
1
1
1
1
1
1
1
1
1
1
1
1
1
1
1
1
1
1
1
1
1
1
1
1
1
1
1
1
1
1
1
1
1
1
1
1
1
1
1
1
1
1
1
1
1
1
1
1
1
1
1
1
1
1
1
1
1
1
1
1
1
1
1
1
1
1
1
1
1
1
1
1
1
1
1
1
1
1
1
1
1
1
1
1
1
1
1
1
1
1
1
1
1
1
1
1
1
1
1
1
1
1
1
1
1
1
1
1
1
1
1
1
1
1
1
1
1
1.0000006
1
1
1
1
1
1
1
1
1
1
1.0000008
1.000049
1.0001448
1.0049401
1
1
1
1
1
1
1
1
1
1
1.0000003
1.0000179
1.0000739
1.0024766
1
1
1
1
1
1
1
1
1
1
1.0000001
1.000001
0.99995227
0.9995763
1
1
1
1
1
1
1
1
1
0.99999999
0.9999995
0.99998103
0.99973086
0.99618795
1
1
1
1
1
1
1
1
1
0.99999997
0.99999857
0.99995394
0.99942254
0.99243641
1
1
1
1
1
1
1
1
1
0.99999995
0.99999722
0.99992163
0.99903678
0.98868245
1
1
1
1
1
1
1
1
1
0.99999991
0.99999558
0.99989068
0.99866964
0.98534373
1
1
1
1
1
1
1
1
1
0.99999987
0.99999409
0.99986546
0.99834416
0.98280863
1
1
1
1
1
1
1
1
1
0.99999983
0.99999264
0.99984134
0.99804103
0.98049108
1
1
1
1
1
1
1
1
1
0.99999999
0.99999924
0.99997325
0.99964933
0.99410481
1
1
1
1
1
1
1
1
1
0.99999998
0.99999886
0.99996305
0.99952864
0.99253623
1
1
1
1
1
1
1
1
1
0.99999997
0.99999839
0.99995204
0.9993939
0.99098404
1
1
1
1
1
1
1
1
1
0.99999996
0.99999784
0.99993996
0.99924272
0.98940131
1
1
1
1
1
1
1
1
1
0.99999995
0.99999718
0.99992659
0.9990718
0.98776027
1
1
1
1
1
1
1
1
1
0.99999993
0.99999641
0.9999117
0.99887738
0.9860359
1
1
1
1
1
1
1
1
1
0.99999991
0.9999955
0.99989526
0.99865783
0.98422557
1
1
1
1
1
1
1
1
1
0.99999988
0.99999448
0.99987729
0.9984102
0.98234003
1
1
1
1
1
1
1
1
1
0.99999985
0.99999325
0.99985663
0.99811649
0.98027705
1
1
1
1
1
1
1
1
1
0.9999998
0.99999164
0.99983289
0.99779239
0.97793584
1
1
1
1
1
1
1
1
1
1
1
1
1
1
1
1
1
1
1
1
1
1
1
1
1
1
1
1
1
1
1
1
1
1
1
1
1
1
1
1
1
1
1
1
1
1
1
1
1
1
1
1
1
1
1
1
1
1
1
1
1
1
1
1
1
1
1
1
1
1
1
1
0.99999998
0.99999998
0.99999998
0.99999998
0.99999999
0.99999999
0.99999999
0.99999999
0.99999999
0.99999999
0.99999999
0.99999917
0.99999921
0.99999926
0.9999993
0.99999935
0.9999994
0.99999945
0.9999995
0.99999955
0.9999996
0.99999965
0.99999971
0.99997449
0.99997551
0.99997664
0.99997787
0.9999792
0.99998052
0.99998193
0.99998335
0.99998478
0.9999862
0.99998761
0.99998929
0.99959169
0.99960417
0.99961823
0.9996336
0.99965035
0.99966854
0.99968675
0.99970619
0.99972582
0.99974587
0.99976587
0.99978598
0.99980811
0.99466866
0.99480059
0.99495828
0.99513626
0.99533001
0.99553912
0.99576646
0.99599628
0.99623829
0.99648471
0.99673649
0.99698971
0.99724012
0.99749614
0.96189797
0.96254446
0.96328658
0.9641235
0.96504579
0.96606333
0.96715131
0.96830858
0.96953
0.97081856
0.97216191
0.97353682
0.97493209
0.9764613
)
;

boundaryField
{
    Side
    {
        type            empty;
    }
    Inlet
    {
        type            inletOutlet;
        inletValue      uniform 1;
        value           nonuniform List<scalar> 
42
(
1
1
1
1
1
1
1
1
1
1
1
1
1
1
1
1
1
1
1
1
1
1
1
1
1
1
1
1
1
1
1
1
1
1
1
1
1
1
1
1
1
1
)
;
    }
    Airfoil
    {
        type            fixedValue;
        value           uniform 1;
    }
    Outlet
    {
        type            zeroGradient;
    }
    Flap
    {
        type            fixedValue;
        value           nonuniform List<scalar> 0();
    }
    procBoundary1to0
    {
        type            processor;
        value           nonuniform List<scalar> 
58
(
1
1
1
1
1
1
1
1
1
1
1
1
1
1
1
1
1
1
1
1
1
1
1
1
1
1
1
1
1
1
1
1
1
1
1
1
1
1
1
1.0000005
1.0000497
1.0000497
1.0002354
1.0070569
1
1
1
1
1
1
1
1
1
0.99999999
0.99999954
0.99998255
0.99976047
0.99567703
)
;
    }
    procBoundary1to2
    {
        type            processor;
        value           nonuniform List<scalar> 
73
(
1
1
1
1
1
1
1
1
1
1
1
1
1
1
0.99453699
0.9613956
1
1
1
1
1
1
1
1
1
1
1
1
1
1
1
1
1
1
1
1
1
1
1
1
0.95843752
0.99407785
0.9994989
0.99996756
0.99999896
0.99999997
1
1
1
1
1
1
1
1
1
1
1
1
1
1
1
1
1
1
1
1
0.99999998
0.99999998
0.99999914
0.99997358
0.99997358
0.99958162
0.99958162
)
;
    }
}


// ************************************************************************* //
