/*--------------------------------*- C++ -*----------------------------------*\
| =========                 |                                                 |
| \\      /  F ield         | OpenFOAM: The Open Source CFD Toolbox           |
|  \\    /   O peration     | Version:  2206                                  |
|   \\  /    A nd           | Website:  www.openfoam.com                      |
|    \\/     M anipulation  |                                                 |
\*---------------------------------------------------------------------------*/
FoamFile
{
    version     2.0;
    format      ascii;
    arch        "LSB;label=32;scalar=64";
    class       volVectorField;
    location    "0.01";
    object      U;
}
// * * * * * * * * * * * * * * * * * * * * * * * * * * * * * * * * * * * * * //

dimensions      [0 1 -1 0 0 0 0];

internalField   nonuniform List<vector> 
1396
(
(0.85671779 0.043699275 0)
(0.85671779 0.043699275 0)
(0.85671779 0.043699275 0)
(0.85671779 0.043699275 0)
(0.85671779 0.043699275 0)
(0.85671779 0.043699275 0)
(0.85671779 0.043699275 0)
(0.85671779 0.043699275 0)
(0.85671779 0.043699275 0)
(0.85671779 0.043699275 0)
(0.85671779 0.043699275 -4.7324578e-24)
(0.85671779 0.043699275 4.7324531e-24)
(0.85671779 0.043699275 -9.464897e-24)
(0.85671779 0.043699275 9.4648878e-24)
(0.85671779 0.043699275 0)
(0.85671779 0.043699275 9.4648693e-24)
(0.85671779 0.043699275 -9.4648601e-24)
(0.85671779 0.043699275 0)
(0.85671779 0.043699275 0)
(0.85671779 0.043699275 0)
(0.85671779 0.043699275 1.8929646e-23)
(0.85671779 0.043699275 1.1823856e-24)
(0.85671779 0.043699275 -1.1823844e-24)
(0.85671779 0.043699275 0)
(0.85671779 0.043699275 0)
(0.85671779 0.043699275 9.4590475e-24)
(0.85671779 0.043699275 -9.4590383e-24)
(0.85671779 0.043699275 0)
(0.85671779 0.043699275 0)
(0.85671779 0.043699275 0)
(0.85671779 0.043699275 -1.8918003e-23)
(0.85671779 0.043699275 1.8917984e-23)
(0.85671779 0.043699275 0)
(0.85671779 0.043699275 0)
(0.85671779 0.043699275 -1.8917929e-23)
(0.85671779 0.043699275 0)
(0.85671779 0.043699275 0)
(0.85671779 0.043699275 0)
(0.85671779 0.043699275 0)
(0.85671779 0.043699275 0)
(0.85671779 0.043699275 0)
(0.85671779 0.043699275 0)
(0.85671779 0.043699275 9.4531684e-24)
(0.85671779 0.043699275 -9.4531592e-24)
(0.85671779 0.043699275 0)
(0.85671779 0.043699275 0)
(0.85671779 0.043699275 0)
(0.85671779 0.043699275 -1.8906245e-23)
(0.85671779 0.043699275 3.7812452e-23)
(0.85671779 0.043699275 0)
(0.85671779 0.043699275 0)
(0.85671779 0.043699275 0)
(0.85671779 0.043699275 -4.7236805e-24)
(0.85671779 0.043699275 4.7236759e-24)
(0.85671779 0.043699275 0)
(0.85671779 0.043699275 0)
(0.85671779 0.043699275 0)
(0.85671779 0.043699275 9.4473149e-24)
(0.85671779 0.043699275 -9.4473057e-24)
(0.85671779 0.043699275 0)
(0.85671779 0.043699275 0)
(0.85671779 0.043699275 0)
(0.85671779 0.043699275 1.8894538e-23)
(0.85671779 0.043699275 1.1801939e-24)
(0.85671779 0.043699275 -3.5405784e-24)
(0.85671779 0.043699275 2.3603833e-24)
(0.85671779 0.043699275 0)
(0.85671779 0.043699275 9.4415147e-24)
(0.85671779 0.043699275 -9.4415055e-24)
(0.85671779 0.043699275 0)
(0.85671779 0.043699275 0)
(0.85671779 0.043699275 0)
(0.85671779 0.043699275 -1.8882937e-23)
(0.85671779 0.043699275 1.8882919e-23)
(0.85671779 0.043699275 0)
(0.85671779 0.043699275 0)
(0.85671779 0.043699275 -1.8882864e-23)
(0.85671779 0.043699275 0)
(0.85671779 0.043699275 0)
(0.85671779 0.043699275 0)
(0.85671779 0.043699275 0)
(0.85671779 0.043699275 0)
(0.85671779 0.043699275 0)
(0.85671779 0.043699275 0)
(0.85671779 0.043699275 9.4356574e-24)
(0.85671779 0.043699275 -1.8238148e-36)
(0.85671779 0.043699275 -9.435639e-24)
(0.85671779 0.043699275 0)
(0.85671779 0.043699275 0)
(0.85671779 0.043699275 0)
(0.85671779 0.043699275 1.8871204e-23)
(0.85671779 0.043699275 0)
(0.85671779 0.043699275 0)
(0.85671779 0.043699275 0)
(0.85671779 0.043699275 -4.7149357e-24)
(0.85671779 0.043699275 1.4144793e-23)
(0.85671779 0.043699275 -9.4298531e-24)
(0.85671779 0.043699275 0)
(0.85671779 0.043699275 0)
(0.85671779 0.043699275 9.4298256e-24)
(0.85671779 0.043699275 -9.4298164e-24)
(0.85671779 0.043699275 0)
(0.85671779 0.043699275 0)
(0.85671779 0.043699275 -1.8859578e-23)
(0.85671779 0.043699275 1.8859559e-23)
(0.85671779 0.043699275 0)
(0.85671779 0.043699275 0)
(0.85671779 0.043699275 0)
(0.85671779 0.043699275 0)
(0.85671779 0.043699275 0)
(0.85671779 0.043699275 0)
(0.85671779 0.043699275 0)
(0.85671779 0.043699275 9.4240194e-24)
(0.85671779 0.043699275 -9.4240102e-24)
(0.85671779 0.043699275 0)
(0.85671779 0.043699275 0)
(0.85671779 0.043699275 0)
(0.85671779 0.043699275 0)
(0.85671779 0.043699275 1.8847929e-23)
(0.85671779 0.043699275 1.1772844e-24)
(0.85671779 0.043699275 -1.1772833e-24)
(0.85671779 0.043699275 0)
(0.85671779 0.043699275 0)
(0.85671779 0.043699275 9.4182385e-24)
(0.85671779 0.043699275 -9.4182294e-24)
(0.85671779 0.043699275 0)
(0.85671779 0.043699275 0)
(0.85671779 0.043699275 0)
(0.85671779 0.043699275 0)
(0.85671779 0.043699275 0)
(0.85671779 0.043699275 0)
(0.85671779 0.043699275 0)
(0.85671779 0.043699275 -1.8836312e-23)
(0.85671779 0.043699275 -1.1765592e-24)
(0.85671779 0.043699275 3.5296743e-24)
(0.85671779 0.043699275 -2.3531139e-24)
(0.85671779 0.043699275 0)
(0.85671779 0.043699275 9.4124374e-24)
(0.85671779 0.043699275 -9.4124283e-24)
(0.85671779 0.043699275 -9.4124191e-24)
(0.85671779 0.043699275 1.882482e-23)
(0.85671779 0.043699275 -9.4124008e-24)
(0.85671779 0.043699275 0)
(0.85671779 0.043699275 0)
(0.85671779 0.043699275 0)
(0.85671779 0.043699275 1.8824729e-23)
(0.85671779 0.043699275 -1.882471e-23)
(0.85671779 0.043699275 0)
(0.85671779 0.043699275 2.3479612e-24)
(0.85671779 0.043699275 -2.3479566e-24)
(0.85671779 0.043699275 0)
(0.85671779 0.043699275 9.39179e-24)
(0.85671779 0.043699275 -9.3917718e-24)
(0.85671779 0.043699275 0)
(0.85671779 0.043699275 0)
(0.85671779 0.043699275 -9.3917172e-24)
(0.85671779 0.043699275 9.391699e-24)
(0.85671779 0.043699275 0)
(0.85671779 0.043699275 0)
(0.85671779 0.043699275 0)
(0.85671779 0.043699275 1.8783252e-23)
(0.85671779 0.043699275 0)
(0.85671779 0.043699275 -2.3465167e-24)
(0.85671779 0.043699275 2.3465121e-24)
(0.85671779 0.043699275 -4.6930152e-24)
(0.85671779 0.043699275 -4.6930061e-24)
(0.85671779 0.043699275 9.385994e-24)
(0.85671779 0.043699275 9.3859758e-24)
(0.85671779 0.043699275 -1.8771915e-23)
(0.85671779 0.043699275 9.3859395e-24)
(0.85671779 0.043699275 0)
(0.85671779 0.043699275 0)
(0.85671779 0.043699275 0)
(0.85671779 0.043699275 0)
(0.85671779 0.043699275 0)
(0.85671779 0.043699275 -1.1725393e-24)
(0.85671779 0.043699275 3.517611e-24)
(0.85671779 0.043699275 -2.3450695e-24)
(0.85671779 0.043699275 0)
(0.85671779 0.043699275 0)
(0.85671779 0.043699275 0)
(0.85671779 0.043699275 0)
(0.85671779 0.043699275 0)
(0.85671779 0.043699275 0)
(0.85671779 0.043699275 1.8760302e-23)
(0.85671779 0.043699275 -1.8760265e-23)
(0.85671779 0.043699275 0)
(0.85671779 0.043699275 -1.8760193e-23)
(0.85671779 0.043699275 1.8760156e-23)
(0.85671779 0.043699275 -1.1718188e-24)
(0.85671779 0.043699275 -1.1718166e-24)
(0.85671779 0.043699275 -2.3436286e-24)
(0.85671779 0.043699275 9.3744962e-24)
(0.85671779 0.043699275 -4.687239e-24)
(0.85671779 0.043699275 0)
(0.85671779 0.043699275 0)
(0.85671779 0.043699275 0)
(0.85671779 0.043699275 -9.3744055e-24)
(0.85671779 0.043699275 -9.3743874e-24)
(0.85671779 0.043699275 1.8748738e-23)
(0.85671779 0.043699275 0)
(0.85671779 0.043699275 -1.8748666e-23)
(0.85671779 0.043699275 1.874863e-23)
(0.85671779 0.043699275 -1.1710993e-24)
(0.85671779 0.043699275 3.513291e-24)
(0.85671779 0.043699275 -2.3421895e-24)
(0.85671779 0.043699275 -4.6843699e-24)
(0.85671779 0.043699275 1.4053083e-23)
(0.85671779 0.043699275 -9.3687036e-24)
(0.85671779 0.043699275 -9.3686855e-24)
(0.85671779 0.043699275 1.8737335e-23)
(0.85671779 0.043699275 -9.3686493e-24)
(0.85671779 0.043699275 0)
(0.85671779 0.043699275 0)
(0.85671779 0.043699275 0)
(0.85671779 0.043699275 -1.8737154e-23)
(0.85671779 0.043699275 1.8737117e-23)
(0.85671779 0.043699275 0)
(0.85671779 0.043699275 -2.3407567e-24)
(0.85671779 0.043699275 2.3407521e-24)
(0.85671779 0.043699275 0)
(0.85671779 0.043699275 9.3629724e-24)
(0.85671779 0.043699275 -9.3629543e-24)
(0.85671779 0.043699275 0)
(0.85671779 0.043699275 0)
(0.85671779 0.043699275 0)
(0.85671779 0.043699275 1.8725764e-23)
(0.85671779 0.043699275 -1.8725728e-23)
(0.85671779 0.043699275 0)
(0.85671779 0.043699275 0)
(0.85671779 0.043699275 0)
(0.85671779 0.043699275 -1.1696628e-24)
(0.85671779 0.043699275 3.5089816e-24)
(0.85671779 0.043699275 -2.3393165e-24)
(0.85671779 0.043699275 -4.6786241e-24)
(0.85671779 0.043699275 1.4035845e-23)
(0.85671779 0.043699275 -9.357212e-24)
(0.85671779 0.043699275 -9.3571939e-24)
(0.85671779 0.043699275 9.3571758e-24)
(0.85671779 0.043699275 0)
(0.85671779 0.043699275 1.8714279e-23)
(0.85671779 0.043699275 -1.8714243e-23)
(0.85671779 0.043699275 0)
(0.85671779 0.043699275 -1.8714171e-23)
(0.85671779 0.043699275 1.8714135e-23)
(0.85671779 0.043699275 3.7339019e-23)
(0.85671779 0.043699275 -3.7384693e-23)
(0.85671779 0.043699275 3.7430479e-23)
(0.85671779 0.043699275 -3.7476377e-23)
(0.85671779 0.043699275 0)
(0.85671779 0.043699275 0)
(0.85671779 0.043699275 0)
(0.85671779 0.043699275 0)
(0.85671779 0.043699275 3.7707566e-23)
(0.85671779 0.043699275 0)
(0.85671779 0.043699275 -3.7339091e-23)
(0.85671779 0.043699275 3.7384765e-23)
(0.85671779 0.043699275 3.7430551e-23)
(0.85671779 0.043699275 0)
(0.85671779 0.043699275 0)
(0.85671779 0.043699275 3.7568584e-23)
(0.85671779 0.043699275 0)
(0.85671779 0.043699275 0)
(0.85671779 0.043699275 0)
(0.85671779 0.043699275 0)
(0.85671779 0.043699275 0)
(0.85671779 0.043699275 0)
(0.85671779 0.043699275 -3.7430624e-23)
(0.85671779 0.043699275 -3.7476522e-23)
(0.85671779 0.043699275 0)
(0.85671779 0.043699275 -3.7568657e-23)
(0.85671779 0.043699275 -3.7614895e-23)
(0.85671779 0.043699275 0)
(0.85671779 0.043699275 -3.7707712e-23)
(0.85671779 0.043699275 0)
(0.85671779 0.043699275 0)
(0.85671779 0.043699275 0)
(0.85671779 0.043699275 3.7430696e-23)
(0.85671779 0.043699275 7.4953189e-23)
(0.85671779 0.043699275 -3.7522606e-23)
(0.85671779 0.043699275 0)
(0.85671779 0.043699275 7.5229935e-23)
(0.85671779 0.043699275 -3.766132e-23)
(0.85671779 0.043699275 7.5415571e-23)
(0.85671779 0.043699275 3.7754367e-23)
(0.85671779 0.043699275 1.8669654e-23)
(0.85671779 0.043699275 0)
(0.85671779 0.043699275 -3.7430768e-23)
(0.85671779 0.043699275 -3.7476667e-23)
(0.85671779 0.043699275 5.6284017e-23)
(0.85671779 0.043699275 0)
(0.85671779 0.043699275 -1.880752e-23)
(0.85671779 0.043699275 3.7661393e-23)
(0.85671779 0.043699275 -3.7707859e-23)
(0.85671779 0.043699275 -3.775444e-23)
(0.85671779 0.043699275 -1.866969e-23)
(0.85671779 0.043699275 0)
(0.85671779 0.043699275 0)
(0.85671779 0.043699275 -1.873837e-23)
(0.85671779 0.043699275 -3.7522751e-23)
(0.85671779 0.043699275 0)
(0.85671779 0.043699275 -1.8807557e-23)
(0.85671779 0.043699275 -1.8830733e-23)
(0.85671779 0.043699275 0)
(0.85671779 0.043699275 0)
(0.85671779 0.043699275 0)
(0.85671779 0.043699275 0)
(0.85671779 0.043699275 0)
(0.85671779 0.043699275 1.8738406e-23)
(0.85671779 0.043699275 1.8761412e-23)
(0.85671779 0.043699275 0)
(0.85671779 0.043699275 0)
(0.85671779 0.043699275 1.883077e-23)
(0.85671779 0.043699275 0)
(0.85671779 0.043699275 0)
(0.85671779 0.043699275 0)
(0.85671779 0.043699275 0)
(0.85671779 0.043699275 0)
(0.85671779 0.043699275 0)
(0.85671779 0.043699275 0)
(0.85671779 0.043699275 -1.8784511e-23)
(0.85671779 0.043699275 0)
(0.85671779 0.043699275 0)
(0.85671779 0.043699275 1.885404e-23)
(0.85671779 0.043699275 0)
(0.85671779 0.043699275 -1.8669797e-23)
(0.85671779 0.043699275 1.8692635e-23)
(0.85671779 0.043699275 0)
(0.85671779 0.043699275 0)
(0.85671779 0.043699275 0)
(0.85671779 0.043699275 1.8784547e-23)
(0.85671779 0.043699275 0)
(0.85671779 0.043699275 0)
(0.85671779 0.043699275 -1.8854076e-23)
(0.85671779 0.043699275 0)
(0.85671779 0.043699275 9.3349167e-24)
(0.85671779 0.043699275 -1.8692671e-23)
(0.85671779 0.043699275 -9.3577824e-24)
(0.85671779 0.043699275 0)
(0.85671779 0.043699275 -9.3807604e-24)
(0.85671779 0.043699275 0)
(0.85671779 0.043699275 0)
(0.85671779 0.043699275 -9.4154397e-24)
(0.85671779 0.043699275 0)
(0.85671779 0.043699275 0)
(0.85671779 0.043699275 9.334918e-24)
(0.85671779 0.043699275 0)
(0.85671779 0.043699275 9.3577837e-24)
(0.85671779 0.043699275 0)
(0.85671779 0.043699275 9.3807617e-24)
(0.85671779 0.043699275 9.392293e-24)
(0.85671779 0.043699275 0)
(0.85671779 0.043699275 9.415441e-24)
(0.85671779 0.043699275 0)
(0.85671779 0.043699275 -9.4387033e-24)
(0.85671779 0.043699275 4.6674507e-24)
(0.85671779 0.043699275 0)
(0.85671779 0.043699275 0)
(0.85671779 0.043699275 0)
(0.85671779 0.043699275 0)
(0.85671779 0.043699275 -4.6961381e-24)
(0.85671779 0.043699275 0)
(0.85671779 0.043699275 0)
(0.85671779 0.043699275 0)
(0.85671779 0.043699275 9.4386863e-24)
(0.85671779 0.043699275 -7.0011625e-24)
(0.85671779 0.043699275 0)
(0.85671779 0.043699275 0)
(0.85671779 0.043699275 0)
(0.85671779 0.043699275 0)
(0.85671779 0.043699275 -4.696129e-24)
(0.85671779 0.043699275 0)
(0.85671779 0.043699275 0)
(0.85671779 0.043699275 0)
(0.85671779 0.043699275 0)
(0.85671779 0.043699275 2.3337163e-24)
(0.85671779 0.043699275 0)
(0.85671779 0.043699275 0)
(0.85671779 0.043699275 0)
(0.85671779 0.043699275 0)
(0.85671779 0.043699275 0)
(0.85671779 0.043699275 0)
(0.85671779 0.043699275 0)
(0.85671779 0.043699275 0)
(0.85671779 0.043699275 0)
(0.85671779 0.043699275 8.1757587e-24)
(0.85671779 0.043699275 0)
(0.85671779 0.043699275 0)
(0.85671779 0.043699275 -1.0860029e-22)
(0.85671779 0.043699275 0)
(0.85671779 0.043699275 -9.7556879e-23)
(0.85671779 0.043699275 0)
(0.85671779 0.043699275 -8.8552135e-23)
(0.85671779 0.043699275 0)
(0.85671779 0.043699275 0)
(0.85671779 0.043699275 0)
(0.85671779 0.043699275 -7.4752053e-23)
(0.85671779 0.043699275 0)
(0.85671779 0.043699275 -6.9347982e-23)
(0.85671779 0.043699275 8.1709625e-24)
(0.85671779 0.043699275 2.4479165e-22)
(0.85671779 0.043699275 0)
(0.85671779 0.043699275 1.085474e-22)
(0.85671779 0.043699275 0)
(0.85671779 0.043699275 9.75142e-23)
(0.85671779 0.043699275 0)
(0.85671779 0.043699275 8.8516971e-23)
(0.85671779 0.043699275 0)
(0.85671779 0.043699275 0)
(0.85671779 0.043699275 -2.429861e-24)
(0.85671779 0.043699275 7.8229824e-23)
(0.85671779 0.043699275 -1.1238355e-24)
(0.85671779 0.043699275 6.9326417e-23)
(0.85671779 0.043699275 8.1661749e-24)
(0.85671779 0.043699275 -7.3397208e-22)
(0.85671779 0.043699275 4.5998829e-22)
(0.85671779 0.043699275 -6.7809119e-24)
(0.85671779 0.043699275 6.4180073e-24)
(0.85671779 0.043699275 0)
(0.85671779 0.043699275 3.6524019e-22)
(0.85671779 0.043699275 5.5301156e-24)
(0.85671779 0.043699275 3.3832564e-22)
(0.85671779 0.043699275 -2.5315728e-24)
(0.85671779 0.043699275 2.4290141e-24)
(0.85671779 0.043699275 0)
(0.85671779 0.043699275 0)
(0.85671779 0.043699275 0)
(0.85671779 0.043699275 0)
(0.85671779 0.043699275 2.0246629e-34)
(0.85671779 0.043699275 -4.5256758e-22)
(0.85671779 0.043699275 -2.9428959e-36)
(0.85671779 0.043699275 -1.2830106e-23)
(0.85671779 0.043699275 3.9580527e-22)
(0.85671779 0.043699275 -3.7667842e-22)
(0.85671779 0.043699275 5.5279221e-24)
(0.85671779 0.043699275 -3.4083953e-22)
(0.85671779 0.043699275 2.5306534e-24)
(0.85671779 0.043699275 -2.4281677e-24)
(0.85671779 0.043699275 2.3336545e-24)
(0.85671779 0.043699275 5.6155549e-25)
(0.85671779 0.043699275 -5.4127607e-25)
(0.85671779 0.043699275 -1.0358903e-21)
(0.85671779 0.043699275 -4.8114128e-22)
(0.85671779 0.043699275 -7.1799115e-24)
(0.85671779 0.043699275 0)
(0.85671779 0.043699275 0)
(0.85671779 0.043699275 -3.8954575e-22)
(0.85671779 0.043699275 0)
(0.85671779 0.043699275 0)
(0.85671779 0.043699275 6.7613835e-22)
(0.85671779 0.043699275 0)
(0.85671779 0.043699275 0)
(0.85671779 0.043699275 0)
(0.85671779 0.043699275 0)
(0.85671779 0.043699275 0)
(0.85671779 0.043699275 1.0434362e-21)
(0.85671779 0.043699275 9.7702151e-22)
(0.85671779 0.043699275 0)
(0.85671779 0.043699275 0)
(0.85671779 0.043699275 0)
(0.85671779 0.043699275 -7.787514e-22)
(0.85671779 0.043699275 7.4115039e-22)
(0.85671779 0.043699275 0)
(0.85671779 0.043699275 -6.7588218e-22)
(0.85671779 0.043699275 0)
(0.85671779 0.043699275 0)
(0.85671779 0.043699275 -5.9701569e-22)
(0.85671779 0.043699275 0)
(0.85671779 0.043699275 0)
(0.85671779 0.043699275 8.1470801e-24)
(0.85671779 0.043699275 0)
(0.85671779 0.043699275 0)
(0.85671779 0.043699275 0)
(0.85671779 0.043699275 8.1999448e-22)
(0.85671779 0.043699275 1.5568232e-21)
(0.85671779 0.043699275 -7.4663043e-22)
(0.85671779 0.043699275 -6.9569037e-22)
(0.85671779 0.043699275 -6.835437e-22)
(0.85671779 0.043699275 5.0557987e-24)
(0.85671779 0.043699275 -6.2338743e-22)
(0.85671779 0.043699275 -1.9188862e-34)
(0.85671779 0.043699275 -5.7447728e-22)
(0.85671779 0.043699275 -5.5375054e-22)
(0.85671779 0.043699275 8.1423202e-24)
(0.85671779 0.043699275 -9.7595248e-22)
(0.85671779 0.043699275 0)
(0.85671779 0.043699275 0)
(0.85671779 0.043699275 -8.26021e-22)
(0.85671779 0.043699275 -7.7199341e-22)
(0.85671779 0.043699275 -5.7854302e-24)
(0.85671779 0.043699275 7.1197236e-22)
(0.85671779 0.043699275 6.7273225e-22)
(0.85671779 0.043699275 2.5269826e-24)
(0.85671779 0.043699275 6.2074572e-22)
(0.85671779 0.043699275 5.9661636e-22)
(0.85671779 0.043699275 5.7429235e-22)
(0.85671779 0.043699275 5.5357871e-22)
(0.85671779 0.043699275 8.1375661e-24)
(0.85671779 0.043699275 9.7541885e-22)
(0.85671779 0.043699275 0)
(0.85671779 0.043699275 8.6543031e-22)
(0.85671779 0.043699275 -8.1284101e-22)
(0.85671779 0.043699275 -6.076038e-24)
(0.85671779 0.043699275 -5.7830295e-24)
(0.85671779 0.043699275 5.5169808e-24)
(0.85671779 0.043699275 -2.6371673e-24)
(0.85671779 0.043699275 2.5260666e-24)
(0.85671779 0.043699275 -2.4239445e-24)
(0.85671779 0.043699275 1.1648767e-24)
(0.85671779 0.043699275 1.1213038e-24)
(0.85671779 0.043699275 5.5340698e-22)
(0.85671779 0.043699275 8.1328175e-24)
(0.85671779 0.043699275 1.9421553e-21)
(0.85671779 0.043699275 -1.8261735e-21)
(0.85671779 0.043699275 -8.6501066e-22)
(0.85671779 0.043699275 -8.124679e-22)
(0.85671779 0.043699275 -1.5608613e-21)
(0.85671779 0.043699275 -5.7806309e-24)
(0.85671779 0.043699275 5.5147978e-24)
(0.85671779 0.043699275 2.6361696e-24)
(0.85671779 0.043699275 -2.5251512e-24)
(0.85671779 0.043699275 0)
(0.85671779 0.043699275 0)
(0.85671779 0.043699275 0)
(0.85671779 0.043699275 5.5323535e-22)
(0.85671779 0.043699275 2.080787e-21)
(0.85671779 0.043699275 -1.7307992e-36)
(0.85671779 0.043699275 1.0346782e-33)
(0.85671779 0.043699275 6.7546204e-24)
(0.85671779 0.043699275 1.6305847e-21)
(0.85671779 0.043699275 3.1082213e-21)
(0.85671779 0.043699275 1.4734497e-21)
(0.85671779 0.043699275 5.5126164e-24)
(0.85671779 0.043699275 -1.3518436e-21)
(0.85671779 0.043699275 5.0484731e-24)
(0.85671779 0.043699275 -2.4222594e-24)
(0.85671779 0.043699275 -1.1920367e-21)
(0.85671779 0.043699275 -1.1474765e-21)
(0.85671779 0.043699275 -2.6893032e-33)
(0.85671779 0.043699275 -2.0795742e-21)
(0.85671779 0.043699275 -1.9476429e-21)
(0.85671779 0.043699275 1.8314527e-21)
(0.85671779 0.043699275 -1.7283452e-21)
(0.85671779 0.043699275 6.3915172e-24)
(0.85671779 0.043699275 -1.5595021e-21)
(0.85671779 0.043699275 -2.9630057e-21)
(0.85671779 0.043699275 5.5104369e-24)
(0.85671779 0.043699275 2.6973969e-21)
(0.85671779 0.043699275 0)
(0.85671779 0.043699275 1.2397659e-21)
(0.85671779 0.043699275 2.3821135e-21)
(0.85671779 0.043699275 1.1482278e-21)
(0.85671779 0.043699275 -1.1057848e-21)
(0.85671779 0.043699275 8.1186046e-24)
(0.85671779 0.043699275 -1.9465803e-21)
(0.85671779 0.043699275 -1.8305131e-21)
(0.85671779 0.043699275 1.7275084e-21)
(0.85671779 0.043699275 0)
(0.85671779 0.043699275 0)
(0.85671779 0.043699275 1.4780024e-21)
(0.85671779 0.043699275 -1.4101143e-21)
(0.85671779 0.043699275 -2.6990108e-21)
(0.85671779 0.043699275 2.5224091e-24)
(0.85671779 0.043699275 -2.4786704e-21)
(0.85671779 0.043699275 -1.1912407e-21)
(0.85671779 0.043699275 0)
(0.85671779 0.043699275 -1.1054422e-21)
(0.85671779 0.043699275 8.1138785e-24)
(0.85671779 0.043699275 1.9455189e-21)
(0.85671779 0.043699275 1.8295744e-21)
(0.85671779 0.043699275 -6.7448138e-24)
(0.85671779 0.043699275 6.3856604e-24)
(0.85671779 0.043699275 -1.5520825e-21)
(0.85671779 0.043699275 -5.7710562e-24)
(0.85671779 0.043699275 1.4150633e-21)
(0.85671779 0.043699275 2.6953591e-21)
(0.85671779 0.043699275 0)
(0.85671779 0.043699275 1.2389048e-21)
(0.85671779 0.043699275 0)
(0.85671779 0.043699275 -1.1463704e-21)
(0.85671779 0.043699275 1.1050998e-21)
(0.85671779 0.043699275 1.3689479e-21)
(0.85671779 0.043699275 0)
(0.85671779 0.043699275 1.428665e-21)
(0.85671779 0.043699275 -1.4605209e-21)
(0.85671779 0.043699275 0)
(0.85671779 0.043699275 1.5286934e-21)
(0.85671779 0.043699275 1.5652232e-21)
(0.85671779 0.043699275 0)
(0.85671779 0.043699275 0)
(0.85671779 0.043699275 0)
(0.85671779 0.043699275 0)
(0.85671779 0.043699275 1.7776135e-21)
(0.85671779 0.043699275 -1.4286647e-21)
(0.85671779 0.043699275 0)
(0.85671779 0.043699275 0)
(0.85671779 0.043699275 -1.5286931e-21)
(0.85671779 0.043699275 0)
(0.85671779 0.043699275 0)
(0.85671779 0.043699275 0)
(0.85671779 0.043699275 1.6860964e-21)
(0.85671779 0.043699275 1.7306458e-21)
(0.85671779 0.043699275 -1.7776132e-21)
(0.85671779 0.043699275 -1.4605204e-21)
(0.85671779 0.043699275 0)
(0.85671779 0.043699275 0)
(0.85671779 0.043699275 0)
(0.85671779 0.043699275 0)
(0.85671779 0.043699275 0)
(0.85671779 0.043699275 1.1463777e-33)
(0.85671779 0.043699275 -3.4612909e-21)
(0.85671779 0.043699275 0)
(0.85671779 0.043699275 0)
(0.85671779 0.043699275 0)
(0.85671779 0.043699275 -1.6035407e-21)
(0.85671779 0.043699275 0)
(0.85671779 0.043699275 -8.6483736e-34)
(0.85671779 0.043699275 1.1053826e-33)
(0.85671779 0.043699275 0)
(0.85671779 0.043699275 0)
(0.85671779 0.043699275 1.6035405e-21)
(0.85671779 0.043699275 0)
(0.85671779 0.043699275 -3.3721908e-21)
(0.85671779 0.043699275 3.4612895e-21)
(0.85671779 0.043699275 0)
(0.85671779 0.043699275 0)
(0.85671779 0.043699275 1.6860951e-21)
(0.85671779 0.043699275 5.5336357e-34)
(0.85671779 0.043699275 0)
(0.85671779 0.043699275 1.6860948e-21)
(0.85671779 0.043699275 -1.7306441e-21)
(0.85671779 0.043699275 0)
(0.85671779 0.043699275 0)
(0.85671779 0.043699275 1.777611e-21)
(0.85671779 0.043699275 -3.5552213e-21)
(0.84778597 0.061312082 -1.8911651e-22)
(0.84831415 0.061770087 -9.5114285e-23)
(0.84916233 0.062111969 1.446272e-25)
(0.85000984 0.062324831 -9.6399326e-23)
(0.85066116 0.062425482 1.9400101e-22)
(0.85104965 0.062455078 1.9504596e-22)
(0.85131208 0.062450073 0)
(0.85161313 0.062407988 0)
(0.85201827 0.062302868 4.1125356e-22)
(0.8525983 0.062072545 6.1302353e-22)
(0.85108803 0.061132797 -4.9424021e-23)
(0.85095278 0.061550667 0)
(0.85090239 0.061853137 0)
(0.85092378 0.062038595 0)
(0.85097718 0.062125308 0)
(0.85104115 0.062153173 2.0509778e-22)
(0.85110326 0.062153442 0)
(0.85116444 0.062126187 0)
(0.85121562 0.062061923 1.3344735e-23)
(0.85127068 0.061944956 -6.1141985e-22)
(0.85632667 0.045160447 0)
(0.85630565 0.04522297 0)
(0.85628778 0.045264814 0)
(0.85626578 0.045285848 -3.0686863e-22)
(0.85625229 0.045292874 1.028424e-22)
(0.85624961 0.045292434 1.1035702e-24)
(0.85625304 0.045290021 -2.0789451e-22)
(0.85625807 0.045287528 -2.0898579e-22)
(0.85626382 0.045292161 2.100694e-22)
(0.85626552 0.04531914 -2.111431e-22)
(0.85669628 0.043774123 -5.0507828e-23)
(0.85669548 0.043777312 1.0174582e-22)
(0.85669512 0.043779695 -3.0735597e-22)
(0.85669507 0.043781303 4.1230772e-22)
(0.85669522 0.04378222 0)
(0.85669538 0.043782816 2.0858737e-22)
(0.8566954 0.043783388 0)
(0.85669528 0.043783897 3.1625401e-22)
(0.85669507 0.043784095 -4.2389737e-22)
(0.85669519 0.043782924 3.1957955e-22)
(0.85671666 0.043703787 0)
(0.85671658 0.04370406 1.0256854e-22)
(0.85671653 0.043704266 2.0653644e-22)
(0.8567165 0.043704406 -2.0786955e-22)
(0.85671649 0.043704489 0)
(0.85671649 0.043704541 -3.1542777e-22)
(0.85671649 0.043704589 2.1145564e-22)
(0.85671648 0.043704649 -3.1891247e-22)
(0.85671644 0.04370475 0)
(0.85671634 0.043704899 1.074543e-22)
(0.85671777 0.043699378 0)
(0.85671776 0.043699385 0)
(0.85671776 0.04369939 -2.0821473e-22)
(0.85671776 0.043699394 4.3640732e-30)
(0.85671776 0.043699396 2.1082755e-22)
(0.85671776 0.043699397 1.0601397e-22)
(0.85671776 0.043699399 0)
(0.85671776 0.043699401 -2.1441408e-22)
(0.85671776 0.043699405 2.1559874e-22)
(0.85671776 0.043699412 -1.0838544e-22)
(0.85671779 0.043699278 -1.5528526e-22)
(0.85671779 0.043699278 2.0849485e-22)
(0.85671779 0.043699278 1.0495528e-22)
(0.85671779 0.043699278 -1.0563525e-22)
(0.85671779 0.043699278 -1.0628023e-22)
(0.85671779 0.043699278 2.1379314e-22)
(0.85671779 0.043699278 -1.0751122e-22)
(0.85671779 0.043699278 -1.0812345e-22)
(0.85671779 0.043699279 1.0873364e-22)
(0.85671779 0.043699279 1.0933839e-22)
(0.85671779 0.043699275 1.0438632e-22)
(0.85671779 0.043699275 -1.0510759e-22)
(0.85671779 0.043699275 1.0581705e-22)
(0.85671779 0.043699275 -1.0650381e-22)
(0.85671779 0.043699275 -1.0716106e-22)
(0.85671779 0.043699275 3.2338149e-22)
(0.85671779 0.043699275 -1.0842561e-22)
(0.85671779 0.043699275 -3.2716698e-22)
(0.85671779 0.043699275 3.2905271e-22)
(0.85671779 0.043699275 3.3092478e-22)
(0.85671779 0.043699275 1.0526364e-22)
(0.85671779 0.043699275 -3.1794619e-22)
(0.85671779 0.043699275 5.3346541e-23)
(0.85671779 0.043699275 0)
(0.85671779 0.043699275 0)
(0.85671779 0.043699275 -2.1741257e-22)
(0.85671779 0.043699275 2.1871137e-22)
(0.85671779 0.043699275 0)
(0.85671779 0.043699275 1.6597741e-22)
(0.85671779 0.043699275 -3.3388645e-22)
(0.85671779 0.043699275 -5.3077916e-23)
(0.85671779 0.043699275 0)
(0.85671779 0.043699275 1.6137561e-22)
(0.85671779 0.043699275 -5.4142248e-23)
(0.85671779 0.043699275 0)
(0.85671779 0.043699275 2.1926863e-22)
(0.85671779 0.043699275 -1.6115691e-35)
(0.85671779 0.043699275 -2.2193829e-22)
(0.85671779 0.043699275 5.5818095e-23)
(0.85671779 0.043699275 5.6150268e-23)
(0.85671779 0.043699275 -2.4248279e-36)
(0.85671779 0.043699275 1.6166311e-22)
(0.85671779 0.043699275 -1.084894e-22)
(0.85671779 0.043699275 -1.0919736e-22)
(0.85671779 0.043699275 0)
(0.85671779 0.043699275 -5.5289164e-23)
(0.85671779 0.043699275 5.5632269e-23)
(0.85671779 0.043699275 0)
(0.85671779 0.043699275 0)
(0.85671779 0.043699275 -2.8330977e-22)
(0.85671779 0.043699275 -2.6996591e-23)
(0.85671779 0.043699275 -1.3586879e-22)
(0.85671779 0.043699275 2.7352608e-23)
(0.85671779 0.043699275 1.6518861e-22)
(0.85671779 0.043699275 -1.385442e-22)
(0.85671779 0.043699275 1.6730811e-22)
(0.85671779 0.043699275 -5.6122088e-23)
(0.85671779 0.043699275 0)
(0.85671779 0.043699275 -2.2731775e-22)
(0.85671779 0.043699275 4.2887231e-22)
(0.85671779 0.043699275 1.3614903e-23)
(0.85671779 0.043699275 -1.5073333e-22)
(0.85671779 0.043699275 9.6548366e-23)
(0.85671779 0.043699275 -1.1106375e-22)
(0.85671779 0.043699275 1.3973407e-22)
(0.85671779 0.043699275 0)
(0.85671779 0.043699275 2.264691e-22)
(0.85671779 0.043699275 -2.2792373e-22)
(0.85671779 0.043699275 0)
(0.85671779 0.043699275 1.4427543e-23)
(0.85671779 0.043699275 -9.6129186e-23)
(0.85671779 0.043699275 2.3494606e-22)
(0.85671779 0.043699275 -1.2519082e-22)
(0.85671779 0.043699275 1.1201096e-22)
(0.85671779 0.043699275 -1.1274865e-22)
(0.85671779 0.043699275 0)
(0.85671779 0.043699275 -2.2847098e-22)
(0.85671779 0.043699275 2.2996783e-22)
(0.85671779 0.043699275 0)
(0.85671779 0.043699275 1.4560924e-23)
(0.85349128 0.061599853 -1.3253913e-22)
(0.85468752 0.060818709 -2.3254908e-22)
(0.85491975 0.060011213 0)
(0.85503307 0.059290682 -2.3426562e-22)
(0.85541136 0.058627657 4.7755908e-22)
(0.85597463 0.057929249 -2.4539862e-22)
(0.8563245 0.057143811 -2.3250995e-22)
(0.85620065 0.056332683 0)
(0.85582805 0.055632806 6.8818346e-22)
(0.85556977 0.055089507 2.4570507e-22)
(0.855508 0.05466236 -9.2634722e-22)
(0.85557455 0.054292625 2.4114459e-22)
(0.85581983 0.053974998 1.1600182e-21)
(0.8561771 0.053581307 -6.9315625e-22)
(0.85136917 0.061731036 3.6282081e-22)
(0.85202338 0.060904735 -2.5171142e-22)
(0.85240984 0.060064619 2.5083048e-22)
(0.85276102 0.059308722 -7.5231468e-22)
(0.85311214 0.058582957 1.013326e-21)
(0.85348183 0.057801556 -5.1171151e-22)
(0.85383495 0.056960604 0)
(0.85412197 0.056165612 9.9411228e-22)
(0.85432069 0.055524773 -7.5415199e-22)
(0.85445604 0.05502364 -4.8620508e-22)
(0.85458066 0.054601823 0)
(0.85470787 0.054209357 -4.8525037e-22)
(0.85483787 0.053813559 2.470337e-22)
(0.85499355 0.053300595 -1.9689533e-21)
(0.85623529 0.0453802 1.3244173e-22)
(0.85630994 0.045216501 2.7879368e-26)
(0.85635475 0.045091338 -5.2735598e-22)
(0.85639544 0.044985417 -1.2308714e-24)
(0.85643225 0.044885323 -1.0484197e-21)
(0.85646797 0.044779644 5.2239479e-22)
(0.85650245 0.044672174 0)
(0.85653233 0.044578639 2.6067037e-22)
(0.85655369 0.044509663 0)
(0.8565668 0.044457956 1.2972297e-21)
(0.85657866 0.044414727 -1.036365e-21)
(0.85659065 0.04437473 2.5800664e-22)
(0.85660391 0.044335391 -2.575552e-22)
(0.85661959 0.044283388 -2.0613897e-21)
(0.85669459 0.043778836 5.55789e-22)
(0.85669873 0.043771527 -2.7717008e-22)
(0.85670044 0.043766188 2.7619352e-22)
(0.85670225 0.043761374 -1.2793313e-25)
(0.85670404 0.043756815 5.4984647e-22)
(0.85670582 0.043752134 8.2294081e-22)
(0.85670738 0.043747481 0)
(0.85670851 0.043743441 1.0461833e-25)
(0.85670927 0.043740369 2.7254645e-22)
(0.85670989 0.043737987 0)
(0.85671047 0.043735948 0)
(0.85671108 0.043734031 -2.7093066e-22)
(0.85671187 0.043731881 0)
(0.85671289 0.043728546 -2.698536e-22)
(0.85671604 0.043704949 -1.4595533e-22)
(0.85671637 0.043704239 2.9109055e-22)
(0.85671654 0.043703753 -2.9023986e-22)
(0.8567167 0.043703341 -2.8948549e-22)
(0.85671684 0.04370295 -2.8881767e-22)
(0.85671698 0.043702545 0)
(0.8567171 0.043702154 1.1499146e-21)
(0.8567172 0.043701833 -1.4340873e-21)
(0.85671727 0.043701606 -5.7240023e-22)
(0.85671732 0.043701436 0)