/*--------------------------------*- C++ -*----------------------------------*\
| =========                 |                                                 |
| \\      /  F ield         | OpenFOAM: The Open Source CFD Toolbox           |
|  \\    /   O peration     | Version:  2206                                  |
|   \\  /    A nd           | Website:  www.openfoam.com                      |
|    \\/     M anipulation  |                                                 |
\*---------------------------------------------------------------------------*/
FoamFile
{
    version     2.0;
    format      ascii;
    arch        "LSB;label=32;scalar=64";
    class       volScalarField;
    location    "0.000260201";
    object      yPlus;
}
// * * * * * * * * * * * * * * * * * * * * * * * * * * * * * * * * * * * * * //

dimensions      [0 0 0 0 0 0 0];

internalField   uniform 0;

boundaryField
{
    Side
    {
        type            empty;
    }
    Inlet
    {
        type            calculated;
        value           uniform 0;
    }
    Outlet
    {
        type            calculated;
        value           uniform 0;
    }
    Flap
    {
        type            calculated;
        value           nonuniform List<scalar> 
107
(
8.02929
10.8748
11.5331
12.4221
13.0305
13.708
14.2746
14.6781
15.0044
15.2509
15.3956
15.4579
15.3965
15.2424
14.9655
14.6476
14.2623
13.8642
13.5076
13.1946
12.9102
12.6219
12.3177
11.9487
11.2758
10.7719
11.1301
12.3153
9.91731
13.5036
13.5214
13.5733
13.7045
13.9948
14.5436
15.4529
16.7669
18.4155
19.9697
21.1542
21.9281
22.4336
22.735
22.8858
22.9498
22.94
22.9235
22.8999
22.8891
22.9406
22.9932
23.0171
23.0483
22.9708
22.29
21.0111
19.7685
26.6646
19.9641
19.3234
20.6796
23.3198
23.6465
26.591
27.016
27.6941
27.596
27.1219
26.3605
25.4998
24.3655
23.3457
22.1517
21.2199
20.2473
19.4844
18.7894
18.2453
17.7137
17.2858
16.9276
16.5819
16.3776
16.1542
16.0035
15.8717
15.7235
15.597
15.4825
15.3602
15.2356
15.1086
14.9819
14.8533
14.7273
14.6095
14.4899
14.3561
14.2054
14.0484
13.8937
13.769
13.6545
13.5553
13.4916
13.4509
13.4727
)
;
    }
    Airfoil
    {
        type            calculated;
        value           nonuniform List<scalar> 
176
(
22.942
21.5231
21.1963
20.8566
20.5393
20.2587
19.8407
19.5253
19.1589
18.7874
18.4521
18.0941
17.7696
17.4742
17.1596
16.9179
16.6831
16.4548
16.2691
16.0954
15.9367
15.7952
15.6678
15.5559
15.4569
15.3682
15.2904
15.2204
15.1581
15.1101
15.071
15.0445
15.0282
15.03
15.0439
15.07
15.0771
15.0569
15.0237
15.0601
15.1902
15.1534
14.9534
14.7226
14.4492
14.1427
13.9604
13.8441
13.7539
16.6538
20.0584
20.7868
21.5292
22.4348
23.2641
23.8613
24.2187
24.4912
24.6938
24.7168
24.4603
24.1139
23.857
23.4372
22.7257
22.2271
21.9727
21.7674
21.4497
20.9486
20.3298
19.5004
18.308
16.5766
14.6748
12.9272
11.513
10.5017
9.71318
9.10385
8.47634
7.71772
6.90041
5.76227
4.31924
2.16938
4.24632
3.19295
8.64224
9.99089
11.4832
12.6021
13.0128
12.9115
12.5446
12.1026
11.6632
11.2595
10.903
10.5847
10.3082
10.058
9.82676
9.60681
9.37577
9.131
8.79946
8.27698
7.56831
8.31624
13.5384
16.3814
16.8588
16.7218
16.6261
16.5422
16.5022
16.492
16.4804
16.5524
16.6914
16.8665
17.3154
17.4496
17.0895
16.48
18.9328
6.95887
4.99654
3.87241
4.01589
4.68717
5.35157
5.99874
6.71284
7.43492
7.88405
8.07257
8.14559
8.16553
8.17533
8.1952
8.2325
8.30779
8.36922
8.3748
8.42317
8.57802
8.82807
9.1032
9.33329
9.3566
9.33674
9.14983
8.65488
7.8805
7.46092
7.4404
8.18623
8.93779
9.45041
9.56983
9.35399
8.91327
8.321
7.74083
7.1649
6.50411
6.04745
5.4463
4.88458
4.35679
3.93189
4.0741
5.22946
5.96396
)
;
    }
}


// ************************************************************************* //
